<?xml version="1.0"?>
<VTKFile type="UnstructuredGrid" version="0.1" byte_order="LittleEndian">
<UnstructuredGrid>
<Piece NumberOfPoints="15842" NumberOfCells="31680">
<CellData>
<DataArray type="Float64" Name="QEM" format="ascii">
 4.8778870204709683E+000 
 5.1019535166298073E+000  5.5445404127989457E+000  6.1883320140302729E+000  7.0161691754328883E+000  8.0062468721766535E+000  9.1314553807499390E+000  1.0362105176048003E+001  1.1664745412982031E+001  1.3003754031062442E+001  1.4343708211118301E+001  1.5648804173614661E+001  1.6882569185728109E+001  1.8011949724306568E+001  1.9006911463983393E+001  1.9838981518286143E+001  2.0485881368538148E+001  2.0928062824932720E+001  2.1153249172983077E+001  2.1152980579183374E+001  2.0924489265597938E+001 
 2.0471451834654282E+001  1.9802625650993654E+001  1.8932588131167158E+001  1.7878898177196785E+001  1.6666722028291741E+001  1.5321027082742102E+001  1.3874203811207064E+001  1.2357697499802487E+001  1.0805367256449534E+001  9.2532920814565784E+000  7.7364861560422229E+000  6.2884450558375553E+000  4.9422273967907797E+000  3.7283591659575568E+000  2.6738625569579999E+000  1.8025889762879239E+000  1.1340198430157282E+000  6.8318749674975976E-001  4.6016277756514673E-001  4.6992555517873308E-001 
 7.1222610722641877E-001  1.1816040493842412E+000  1.8675178207286216E+000  2.7544623262618986E+000  3.8226832064702663E+000  5.0477703927537938E+000  6.4026709545322298E+000  7.8565441243879004E+000  9.3762015204827431E+000  1.0927984704500334E+001  1.2477173968155221E+001  1.3987621794167692E+001  1.5425784755557725E+001  1.6759962730650663E+001  1.7959020032513365E+001  1.8997358612103579E+001  1.9850872102491607E+001  2.0502314091045452E+001  2.0937482640309863E+001  2.1147749649626093E+001 
 2.1130537295688999E+001  2.0888733601767807E+001  2.0431102316229115E+001  1.9770158934262454E+001  1.8926454889265244E+001  1.7921486097791419E+001  1.6784903864307008E+001  1.5546377139075686E+001  1.4239146402359797E+001  1.2899543779404443E+001  1.1563591496544461E+001  1.0266483308214472E+001  9.0437002054037912E+000  7.9283483751530905E+000  6.9501452334633020E+000  6.1357743683544355E+000  5.5071817679749904E+000  5.0818403958629883E+000  4.8664254949638686E+000  7.8525979798879622E+000 
 7.8428535178879999E+000  8.0690530959388838E+000  8.0527104451936360E+000  8.4934634826227171E+000  8.4683009867424968E+000  9.1086066427766585E+000  9.0738502622979311E+000  9.8976443633299773E+000  9.8519119440931675E+000  1.0839111136914752E+001  1.0779163643898963E+001  1.1906457256725011E+001  1.1827503768357051E+001  1.3070525227243168E+001  1.2965508866525253E+001  1.4298389289783698E+001  1.4159186434236897E+001  1.5555121635178578E+001  1.5372743594357800E+001  1.6805936531670838E+001 
 1.6569740625762332E+001  1.8015602138307560E+001  1.7714589293242579E+001  1.9148192745434965E+001  1.8773261594489352E+001  2.0171368646977569E+001  1.9713768160722477E+001  2.1055592804466844E+001  2.0507452356188750E+001  2.1772791502183701E+001  2.1130542135186307E+001  2.2301410592057014E+001  2.1562277040946704E+001  2.2622167268618874E+001  2.1788663499952623E+001  2.2723430522188785E+001  2.1800090618112822E+001  2.2597070528713814E+001  2.1593149591175901E+001  2.2240967158746994E+001 
 2.1168496480290468E+001  2.1659190307362323E+001  2.0533709585717201E+001  2.0861220460834293E+001  1.9700625942570241E+001  1.9862117803136162E+001  1.8686276370909088E+001  1.8680294962435120E+001  1.7510576719923346E+001  1.7341465075361679E+001  1.6198856137425217E+001  1.5871624178161388E+001  1.4777702197803711E+001  1.4303941183026057E+001  1.3277263954664051E+001  1.2670697334423616E+001  1.1728922710919862E+001  1.1006865372331230E+001  1.0164579268994610E+001  9.3494840823709655E+000 
 8.6164733527260822E+000  7.7344801247479520E+000  7.1165898225034425E+000  6.1963059727346472E+000  5.6956800841472823E+000  4.7690606440826411E+000  4.3824889684052106E+000  3.4840668513493931E+000  3.2035757693528413E+000  2.3690800180975269E+000  2.1828335445257196E+000  1.4487198949217068E+000  1.3406002862383577E+000  7.4293702976276277E-001  6.9380719003598734E-001  2.6721935432411337E-001  2.5531334138600181E-001  3.1871076085386002E-002  3.3830253109298859E-002  4.1986701573069829E-002 
 3.3744545937806840E-002  2.9725851312339979E-001  2.5504447157950932E-001  7.9199610901211692E-001  6.9330910014917091E-001  1.5153176201272174E+000  1.3398331430244637E+000  2.4511652178120040E+000  2.1816404618504524E+000  3.5792331332197653E+000  3.2019735914059098E+000  4.8742810900442066E+000  4.3802133391678568E+000  6.3084769217388947E+000  5.6926219729147443E+000  7.8501632419172083E+000  7.1127240351734384E+000  9.4651199087705429E+000  8.6115622537945757E+000  1.1118752704522963E+001 
 1.0158349038321600E+001  1.2775474150767813E+001  1.1721325316834704E+001  1.4398256650339505E+001  1.3268358937562818E+001  1.5952534711434348E+001  1.4767160032569453E+001  1.7405862285748540E+001  1.6186341866280337E+001  1.8726455308273405E+001  1.7496737534729618E+001  1.9887802353956005E+001  1.8670251464336467E+001  2.0865382715362891E+001  1.9683057107891933E+001  2.1641219543312729E+001  2.0514224266119228E+001  2.2200748700085647E+001  2.1147605340801810E+001  2.2534736013843546E+001 
 2.1570395450344233E+001  2.2640302688060540E+001  2.1776231871852836E+001  2.2519781812583833E+001  2.1763431838582573E+001  2.2181657423331362E+001  2.1536374145309971E+001  2.1637871503991043E+001  2.1103525650251925E+001  2.0908699216967104E+001  2.0480546405452785E+001  2.0014971888253111E+001  1.9686503600120986E+001  1.8985879016260792E+001  1.8746236025192868E+001  1.7850596073747592E+001  1.7688367066071372E+001  1.6641634932654437E+001  1.6544431264146098E+001  1.5394684859004835E+001 
 1.5348585877518662E+001  1.4145135561687969E+001  1.4136653286397864E+001  1.2927518078967317E+001  1.2944978180422760E+001  1.1776533646147431E+001  1.1809118327696874E+001  1.0724668178179925E+001  1.0763159100050798E+001  9.8010661212664392E+000  9.8386526070665781E+000  9.0317610896669098E+000  9.0633882574125035E+000  8.4382668357943231E+000  8.4608189730846171E+000  8.0375457599191567E+000  8.0494930370232254E+000  7.8370951781758791E+000  7.8393564247401040E+000  6.2076240170299197E+000 
 6.2278892774654420E+000  6.4347563240819241E+000  6.5713672981021807E+000  6.8965401872340575E+000  7.2457650903142161E+000  7.5759248860913235E+000  8.2273997043570883E+000  8.4538590756670047E+000  9.4891933700823294E+000  9.5049376242408332E+000  1.0994783869241470E+001  1.0698668408933010E+001  1.2701117047758519E+001  1.2000631955416768E+001  1.4559364901226594E+001  1.3373695456970516E+001  1.6517083823239716E+001  1.4778672138219477E+001  1.8519348279772174E+001  1.6175622515640512E+001 
 2.0509960578171832E+001  1.7525258474206900E+001  2.2433744744746612E+001  1.8790024498515002E+001  2.4238356461005495E+001  1.9934514786467936E+001  2.5874964875995762E+001  2.0926921695455665E+001  2.7299157947090382E+001  2.1740320637795939E+001  2.8473451744516694E+001  2.2351480252906605E+001  2.9367129916282185E+001  2.2744022580441747E+001  2.9956774767357157E+001  2.2906509830961333E+001  3.0227998591803168E+001  2.2834159011488239E+001  3.0174128987376115E+001  2.2526696924863387E+001 
 2.9796020355605233E+001  2.1991106780869757E+001  2.9103065644629929E+001  2.1239190121268113E+001  2.8112760594714800E+001  2.0288361000201643E+001  2.6848833705630742E+001  1.9159274773070265E+001  2.5340599668626187E+001  1.7878297079867462E+001  2.3623584468987605E+001  1.6473479668434678E+001  2.1737363032128872E+001  1.4976558377246217E+001  1.9724483872230717E+001  1.3420792595536655E+001  1.7630558545395594E+001  1.1840077825723791E+001  1.5501930831562881E+001  1.0268736504391436E+001 
 1.3384871005111547E+001  8.7408425238737699E+000  1.1325304799963941E+001  7.2892341639010692E+000  9.3676595462263066E+000  5.9446526225178573E+000  7.5534343435334268E+000  4.7355300167669840E+000  5.9206505835575438E+000  3.6874468534200995E+000  4.5035849984424035E+000  2.8222231394986705E+000  3.3316443344729070E+000  2.1580204977600799E+000  2.4289783477570315E+000  1.7086521951944575E+000  1.8141434975538526E+000  1.4834868361959701E+000  1.4996397870981610E+000  1.4872551503936062E+000 
 1.4918047773542094E+000  1.7199688664651691E+000  1.7906722432464155E+000  2.1769108021808496E+000  2.3899699203039764E+000  2.8487630961708126E+000  3.2772674303688172E+000  3.7216363635732161E+000  4.4340805543483688E+000  4.7775789347187576E+000  5.8363242285543615E+000  5.9945177737557778E+000  7.4546877036280916E+000  7.3470467070129732E+000  9.2549620848680725E+000  8.8068302110715315E+000  1.1199182187178174E+001  1.0342912742332310E+001  1.3245974579335481E+001  1.1922404067382912E+001 
 1.5351012056702919E+001  1.3511424839892507E+001  1.7468425103583762E+001  1.5075716795950489E+001  1.9552002213567210E+001  1.6580937526117776E+001  2.1555556268365933E+001  1.7993736212965597E+001  2.3433572610428840E+001  1.9283261165313977E+001  2.5143505323091922E+001  2.0419840578030190E+001  2.6645906304764139E+001  2.1378478054721061E+001  2.7905322520902438E+001  2.2137353145993853E+001  2.8892442965631009E+001  2.2679780414680760E+001  2.9583624987099892E+001  2.2992814529491071E+001 
 2.9961408519928657E+001  2.3070504833510917E+001  3.0016379446921817E+001  2.2911923569779098E+001  2.9747673118051580E+001  2.2522634275236062E+001  2.9162002374788738E+001  2.1912763948020672E+001  2.8273662134592406E+001  2.1100183588680363E+001  2.7106046854552574E+001  2.0106297104507895E+001  2.5689835425507930E+001  1.8958957575824371E+001  2.4062375220526786E+001  1.7689864194346082E+001  2.2267983906081888E+001  1.6333910015127557E+001  2.0355463974766479E+001  1.4928746002462287E+001 
 1.8377060719394674E+001  1.3513911625460683E+001  1.6387806083576070E+001  1.2129329709037309E+001  1.4443786936472964E+001  1.0814056866551043E+001  1.2599879456958309E+001  9.6054613115082113E+000  1.0908421510198719E+001  8.5382895217274832E+000  9.4181212598612358E+000  7.6429594142618340E+000  8.1719889206319944E+000  6.9453008811082269E+000  7.2061464596638336E+000  6.4656761394914088E+000  6.5491797129009584E+000  6.2156083867811125E+000  6.2176190568664698E+000  6.2380591519169615E+000 
 6.2579042535306684E+000  6.5651769375892144E+000  6.6856743735490509E+000  7.2276922838364595E+000  7.5302417467312814E+000  8.2020601779682512E+000  8.7622976848499938E+000  9.4612145278680515E+000  1.0347722589684084E+001  1.0968754131714540E+001  1.2240937749528525E+001  1.2681493155722638E+001  1.4387939092168050E+001  1.4550408605799834E+001  1.6727544847647884E+001  1.6522783312055537E+001  1.9194094227710654E+001  1.8543371809145007E+001  2.1718815094184947E+001  2.0555614861517437E+001 
 2.4231465045950017E+001  2.2503930527510729E+001  2.6663176497137211E+001  2.4335536794946652E+001  2.8948644921344648E+001  2.6001145853728982E+001  3.1027067210225351E+001  2.7455908075406299E+001  3.2843177107351849E+001  2.8661888959360809E+001  3.4350509678510491E+001  2.9587916895570391E+001  3.5511020706836696E+001  3.0210184872076656E+001  3.6295763460358550E+001  3.0513905787944474E+001  3.6687088239299491E+001  3.0492065902281290E+001  3.6676890325489403E+001  3.0145213949039743E+001 
 3.6266401249056955E+001  2.9482489893063061E+001  3.5467378766713601E+001  2.8521163292682157E+001  3.4301567402177852E+001  2.7284806605605635E+001  3.2798348451172878E+001  2.5802613913798151E+001  3.0993889355286470E+001  2.4110037953682298E+001  2.8932015909282871E+001  2.2246620469757634E+001  2.6661323437869363E+001  2.0254927492081816E+001  2.4234051847508372E+001  1.8180602908578155E+001  2.1706133804607031E+001  1.6070067684473251E+001  1.9134214566520594E+001  1.3969695416598849E+001 
 1.6574847856102359E+001  1.1925528797074998E+001  1.4084103495797555E+001  9.9821224876979073E+000  1.1716124199589377E+001  8.1811120491180667E+000  9.5214337498899582E+000  6.5606660083402044E+000  7.5462813006282294E+000  5.1551966244015794E+000  5.8323497467971732E+000  3.9942339119406873E+000  4.4153503007244312E+000  3.1020484915561566E+000  3.3245986509848642E+000  2.4972908324403296E+000  2.5826139398556016E+000  2.1925390549626198E+000  2.2045596581110560E+000  2.1941832517524920E+000 
 2.1981223425527605E+000  2.5022828479675234E+000  2.5633422386687346E+000  3.1105639590643226E+000  3.2926111876744248E+000  4.0065645252174349E+000  4.3708468968119831E+000  5.1717390851623195E+000  5.7756135901842889E+000  6.5819124052735196E+000  7.4776660050729342E+000  8.2076566934124457E+000  9.4413835906507177E+000  1.0014614240605690E+001  1.1625164451348278E+001  1.1964658238480965E+001  1.3982825436438311E+001  1.4016226552250275E+001  1.6463937181940466E+001  1.6124783557437340E+001 
 1.9014425108567529E+001  1.8244242542439977E+001  2.1578296654150392E+001  2.0328172479349185E+001  2.4099049004584973E+001  2.2330167547444198E+001  2.6520116267903514E+001  2.4204482747955005E+001  2.8785630216972262E+001  2.5908361295476016E+001  3.0843369897824005E+001  2.7402180040188146E+001  3.2644781251016440E+001  2.8650299223095974E+001  3.4146087097904669E+001  2.9623283650896330E+001  3.5311077535849080E+001  3.0297387384068870E+001  3.6110425126390659E+001  3.0655090779440869E+001 
 3.6522375436791521E+001  3.0686958969365204E+001  3.6535074732072147E+001  3.0392181885397374E+001  3.6147273813532351E+001  2.9777556184641515E+001  3.5367053373635692E+001  2.8857529690952845E+001  3.4211957877405183E+001  2.7655704440857523E+001  3.2710861030641325E+001  2.6203032703830264E+001  3.0901759509958623E+001  2.4537169938332337E+001  2.8830984869017186E+001  2.2702828045471470E+001  2.6553692001733953E+001  2.0749227297754690E+001  2.4130643544439142E+001  1.8729068420011831E+001 
 2.1627025103165092E+001  1.6697879862253124E+001  1.9111632705382824E+001  1.4712276787734407E+001  1.6654614460191237E+001  1.2827674456406154E+001  1.4324712233951663E+001  1.1096936488542138E+001  1.2187521808984956E+001  9.5693001622714036E+000  1.0304167775763972E+001  8.2882979379581272E+000  8.7286735926074037E+000  7.2905148023741138E+000  7.5064186805522883E+000  6.6049842145664606E+000  6.6733326455117847E+000  6.2485513588193493E+000  6.2505036843340989E+000  7.9732810938400327E+000 
 7.9953285592383843E+000  8.3790047824017222E+000  8.5164658042982992E+000  9.1979329344375156E+000  9.5441028420541247E+000  1.0401133632603617E+001  1.1042664541101084E+001  1.1954808846293886E+001  1.2970163986470057E+001  1.3813732292200998E+001  1.5270703776633660E+001  1.5924278871051612E+001  1.7878089260140115E+001  1.8225653118305395E+001  2.0717420161228098E+001  2.0652578745791462E+001  2.3708406751631763E+001  2.3136675557977334E+001  2.6767070919417744E+001  2.5608078591307041E+001 
 2.9807804057806983E+001  2.7998282672657602E+001  3.2746824520638285E+001  3.0242326240690165E+001  3.5504890817583444E+001  3.2279718824148603E+001  3.8008381967441885E+001  3.4055492635160931E+001  4.0190648544409740E+001  3.5523446106633791E+001  4.1995893809014717E+001  3.6645758847322604E+001  4.3378672021693667E+001  3.7393693031191290E+001  4.4304751827369749E+001  3.7749766686793855E+001  4.4753597991241726E+001  3.7706015157274585E+001  4.4716345703891150E+001  3.7263791393555785E+001 
 4.4195420337353376E+001  3.6434944672179185E+001  4.3205970190994840E+001  3.5241282823845005E+001  4.1775137624626566E+001  3.3712240415647983E+001  3.9939129106187814E+001  3.1884021876908520E+001  3.7742276682034266E+001  2.9800466335940637E+001  3.5237959893019173E+001  2.7510186858192750E+001  3.2485119584775198E+001  2.5065422939108380E+001  2.9546962632317420E+001  2.2522098015938507E+001  2.6490930014852875E+001  1.9936855118369792E+001  2.3385150060091846E+001  1.7366238567925887E+001 
 2.0297505029993044E+001  1.4866308643760645E+001  1.7295167142026614E+001  1.2491200456636342E+001  1.4442876675577500E+001  1.0291429869413356E+001  1.1800955026690064E+001  8.3132458407957710E+000  9.4245424174161325E+000  6.5983306298635283E+000  7.3632815062786507E+000  5.1823961147233053E+000  5.6596576842869881E+000  4.0947652182167706E+000  4.3485191895040893E+000  3.3579634081360359E+000  3.4566185583166655E+000  2.9871632479597059E+000  3.0019610633406311E+000  2.9900612145709742E+000 
 2.9936720170219036E+000  3.3667060510507079E+000  3.4318007266878121E+000  4.1094970829767457E+000  4.3073165080616036E+000  5.2033562471828585E+000  5.6023143498295926E+000  6.6258458433973884E+000  7.2901405994042792E+000  8.3477151336867035E+000  9.3360324321075669E+000  1.0333326471215029E+001  1.1697630852601250E+001  1.2541051973175460E+001  1.4325373196330682E+001  1.4924674953028536E+001  1.7164223681474457E+001  1.7433712376747089E+001  2.0153959286871856E+001  2.0014023335673947E+001 
 2.3229933835333252E+001  2.2609531820360573E+001  2.6325088592947441E+001  2.5163631318004793E+001  2.9371602494365060E+001  2.7619636439828014E+001  3.2301435440002621E+001  2.9921529139387179E+001  3.5047247468048162E+001  3.2016917822328267E+001  3.7545878026636238E+001  3.3857061875147771E+001  3.9738421806506729E+001  3.5397960665978225E+001  4.1571571893100163E+001  3.6603166147907139E+001  4.3000980828262989E+001  3.7443088791450691E+001  4.3990463872642991E+001  3.7895681221973121E+001 
 4.4512886635066245E+001  3.7948781367029333E+001  4.4553033363559614E+001  3.7600820409118811E+001  4.4108472247842172E+001  3.6859534388611841E+001  4.3188002963191018E+001  3.5742110990718409E+001  4.1812000389572262E+001  3.4277074004631721E+001  4.0014679281822588E+001  3.2502050761162785E+001  3.7841377891779032E+001  3.0463018134998634E+001  3.5347746050988597E+001  2.8214792969893804E+001  3.2600319055734836E+001  2.5817802327059624E+001  2.9672618767306311E+001  2.3336926373406637E+001 
 2.6643759367029006E+001  2.0840685436365174E+001  2.3597420587055133E+001  1.8398985874367600E+001  2.0619089200597411E+001  1.6080373957484756E+001  1.7792692927969803E+001  1.3950285965180299E+001  1.5198434941725846E+001  1.2069742405526952E+001  1.2911136953529478E+001  1.0492720115643891E+001  1.0997001694442336E+001  9.2645987037739186E+000  9.5116851209840192E+000  8.4213743020615102E+000  8.4992440904473465E+000  7.9841776959993309E+000  7.9858316619538892E+000  1.0315089844039433E+001 
 1.0341955350372427E+001  1.0807302626783558E+001  1.0970776971378578E+001  1.1800960434888745E+001  1.2209464243176438E+001  1.3260969649953498E+001  1.4015130993072120E+001  1.5145774638663648E+001  1.6336498745666862E+001  1.7399958000709258E+001  1.9105535506388659E+001  1.9957842141104717E+001  2.2241734128014329E+001  2.2745056848926101E+001  2.5654118206118305E+001  2.5681842969665563E+001  2.9245294683448694E+001  2.8684762796765231E+001  3.2913555207744324E+001  3.1668732996466424E+001 
 3.6555434337433738E+001  3.4550478820992005E+001  4.0069894066164373E+001  3.7251240350502151E+001  4.3361612604491263E+001  3.9697838500102577E+001  4.6342322533504209E+001  4.1824044623515583E+001  4.8932426776166928E+001  4.3574441431182628E+001  5.1065570101849815E+001  4.4903905905411911E+001  5.2688156864516692E+001  4.5778510165972094E+001  5.3760119014594046E+001  4.6177967133594279E+001  5.4258082078033603E+001  4.6093618834281678E+001  5.4172710611649883E+001  4.5528072174022832E+001 
 5.3508170927892472E+001  4.4496615108599521E+001  5.2283901299015888E+001  4.3026492118977487E+001  5.0533566710412565E+001  4.1153993472998465E+001  4.8301564425257411E+001  3.8923511490259081E+001  4.5641795102867100E+001  3.6388453156164616E+001  4.2618817778764438E+001  3.3607786672725901E+001  3.9303565834495608E+001  3.0644722690010887E+001  3.5771821514764504E+001  2.7566692089096588E+001  3.2104215986827768E+001  2.4441817410664264E+001  2.8381958600919980E+001  2.1337965807135568E+001 
 2.4685763708799772E+001  1.8322292682013135E+001  2.1095330463473839E+001  1.5459521865462117E+001  1.7687323566683567E+001  1.2809956684018090E+001  1.4533053507667127E+001  1.0428729037542007E+001  1.1697589670978765E+001  8.3654732307362440E+000  9.2394467814707681E+000  6.6626678739443852E+000  7.2086381065902891E+000  5.3551621513641239E+000  5.6461685112115170E+000  4.4697107912779286E+000  4.5834712912051616E+000  4.0243252735154575E+000  4.0416999454453748E+000  4.0281395337885186E+000 
 4.0315702285970012E+000  4.4812111079292896E+000  4.5531376964483874E+000  5.3745181423397845E+000  5.5957952154125961E+000  6.6901615105877674E+000  7.1385049865158958E+000  8.4014877550606943E+000  9.1499404092311565E+000  1.0473731074133889E+001  1.1589208919723479E+001  1.2864514613901720E+001  1.4406423013096401E+001  1.5524249466159592E+001  1.7543195373119854E+001  1.8397863148280635E+001  2.0934540493334872E+001  2.1425071861770764E+001  2.4509277589726619E+001  2.4541152939524835E+001 
 2.8190893097307200E+001  2.7678946371254604E+001  3.1899784258611955E+001  3.0770504533868383E+001  3.5555324011206032E+001  3.3747639814037441E+001  3.9076422097891722E+001  3.6542823300735911E+001  4.2382591053949319E+001  3.9092674346939582E+001  4.5398074605829912E+001  4.1338047380684976E+001  4.8052026519177325E+001  4.3225343309448071E+001  5.0279980758992110E+001  4.4709898671771903E+001  5.2028014151759898E+001  4.5755179585054101E+001  5.3251791559829634E+001  4.6333659240999701E+001 
 5.3917648747157877E+001  4.6429703786604584E+001  5.4006102781676304E+001  4.6040442306616328E+001  5.3512931315097809E+001  4.5174202692026888E+001  5.2447458235687591E+001  4.3850868388362315E+001  5.0832904946244916E+001  4.2104166494197536E+001  4.8709275203875414E+001  3.9978918905408946E+001  4.6130040089951571E+001  3.7530277482854153E+001  4.3161392641206305E+001  3.4824298293139591E+001  3.9882811761179006E+001  3.1934026537813214E+001  3.6382412129268978E+001  2.8938138349302626E+001 
 3.2755389125254538E+001  2.5919913283095745E+001  2.9102638991518742E+001  2.2964485384490253E+001  2.5527479469307853E+001  2.0155491072536886E+001  2.2131548025336507E+001  1.7572892669151543E+001  1.9012121456208444E+001  1.5291345430206869E+001  1.6260072722428102E+001  1.3376965353497624E+001  1.3955903609125171E+001  1.1885387384309867E+001  1.2167351328707937E+001  1.0860736997398167E+001  1.0948031742896211E+001  1.0329226484593944E+001  1.0330111276221571E+001  1.3451032926138280E+001 
 1.3484252239944599E+001  1.4042249620274744E+001  1.4240011443494636E+001  1.5236203220003668E+001  1.5726589170802860E+001  1.6990632176845573E+001  1.7892423288223668E+001  1.9254845701919141E+001  2.0675087625068521E+001  2.1961464609318885E+001  2.3992068172618666E+001  2.5030691729331654E+001  2.7745751568138449E+001  2.8372282380766187E+001  3.1826029189238248E+001  3.1889578736445696E+001  3.6115215813613510E+001  3.5481625267444748E+001  4.0490572143382565E+001  3.9045691623386119E+001 
 4.4827557058146716E+001  4.2481450297201604E+001  4.9004874762580911E+001  4.5694259689517892E+001  5.2908334891123616E+001  4.8596477625634087E+001  5.6432661072984210E+001  5.1109104328017949E+001  5.9483302445697866E+001  5.3166324463833071E+001  6.1981866301025434E+001  5.4715006205769527E+001  6.3865523053229644E+001  5.5715514950224318E+001  6.5087893918219052E+001  5.6144832498541277E+001  6.5622695855533919E+001  5.5993925596446424E+001  6.5460498191517573E+001  5.5267223362893418E+001 
 6.4608028781295999E+001  5.3984368161087929E+001  6.3090165687604575E+001  5.2179175713865931E+001  6.0948616395278250E+001  4.9896166068697028E+001  5.8237654518764913E+001  4.7189327711372080E+001  5.5022693036726743E+001  4.4123261204803789E+001  5.1381497705943289E+001  4.0768939148353404E+001  4.7399092592905582E+001  3.7202148796772704E+001  4.3166002642062999E+001  3.3503504882615481E+001  3.8778173480419603E+001  2.9754204507215753E+001  3.4331932810847469E+001  2.6034935461235261E+001 
 2.9922792550682104E+001  2.2425366793294828E+001  2.5644804992580688E+001  1.9002133535018775E+001  2.1588230413220160E+001  1.5836512904371313E+001  1.7836916285141587E+001  1.2993553790766432E+001  1.4467195619409463E+001  1.0531751012716496E+001  1.1547617589671543E+001  8.5010987338358568E+000  9.1367150745263519E+000  6.9425961989340115E+000  7.2823960448759282E+000  5.8876728751647214E+000  6.0213860834886681E+000  5.3574846923070405E+000  5.3783690887620415E+000  5.3627550663585586E+000 
 5.3658449416780547E+000  5.9035487344170088E+000  5.9838745041568444E+000  6.9692703230375290E+000  7.2200768342912820E+000  8.5388921242565736E+000  9.0498916317913949E+000  1.0581091723592881E+001  1.1436719225869250E+001  1.3054979700024660E+001  1.4332775775862157E+001  1.5910654456871518E+001  1.7679672806146105E+001  1.9089704439489264E+001  2.1408990975281917E+001  2.2527108419427780E+001  2.5444519018659985E+001  2.6151620959622395E+001  2.9702573145165793E+001  2.9886640809118994E+001 
 3.4093038033549789E+001  3.3652448765990911E+001  3.8522019148353444E+001  3.7368267418354385E+001  4.2894084783310014E+001  4.0952828817075343E+001  4.7113103376685920E+001  4.4325411156285533E+001  5.1083276852113350E+001  4.7409982879791393E+001  5.4714156398038533E+001  5.0135392606489134E+001  5.7920837360513104E+001  5.2436798330930642E+001  6.0625665291888026E+001  5.4259866496898809E+001  6.2763256614662708E+001  5.5559803454556580E+001  6.4279417466024640E+001  5.6302425132723528E+001 
 6.5132477721695324E+001  5.6467689367745500E+001  6.5297518980676429E+001  5.6050782695215240E+001  6.4767778058653448E+001  5.5060389130029712E+001  6.3552681925519792E+001  5.3519057322541400E+001  6.1678379469298314E+001  5.1466115396486231E+001  5.9191164740445402E+001  4.8954320618485617E+001  5.6153752029683432E+001  4.6049168022197492E+001  5.2644306400814628E+001  4.2829458151501335E+001  4.8757284598230839E+001  3.9382629865556403E+001  4.4597810526963023E+001  3.5803248392307879E+001 
 4.0279833800114901E+001  3.2191629009104211E+001  3.5924530875983827E+001  2.8650570775002311E+001  3.1656253763031007E+001  2.5281272018911913E+001  2.7597584892552039E+001  2.2180642552940860E+001  2.3866116592322932E+001  1.9439288263934277E+001  2.0571799343173506E+001  1.7137551458837251E+001  1.7812168369138739E+001  1.5343104340036922E+001  1.5669400498227281E+001  1.4109620446947060E+001  1.4208521982326356E+001  1.3469335880146589E+001  1.3468940024037650E+001  1.7594050606778069E+001 
 1.7635244762739045E+001  1.8300744917712802E+001  1.8541480008738560E+001  1.9728672889242130E+001  2.0321210605807202E+001  2.1827083242688829E+001  2.2912514936526687E+001  2.4534337124508973E+001  2.6239515448586936E+001  2.7768794704840854E+001  3.0202260657627889E+001  3.1433793081387776E+001  3.4682620622674690E+001  3.5420203069341170E+001  3.9547544016507032E+001  3.9611328075008792E+001  4.4655046285649803E+001  4.3885440338642120E+001  4.9857329386142560E+001  4.8118984064474759E+001 
 5.5004820897912396E+001  5.2191620709976874E+001  5.9952156874975067E+001  5.5990073712737292E+001  6.4562981982721439E+001  5.9409903097703072E+001  6.8712133787222342E+001  6.2357362047028921E+001  7.2287559891201695E+001  6.4754782822397345E+001  7.5197054308480219E+001  6.6539956842815599E+001  7.7367419336434409E+001  6.7667085268283969E+001  7.8745232378191488E+001  6.8110364908979236E+001  7.9301334880021727E+001  6.7860768913828196E+001  7.9026759144036205E+001  6.6925374855703851E+001 
 7.7931773020868263E+001  6.5329335011200357E+001  7.6048130308748071E+001  6.3114557737977066E+001  7.3427483382462981E+001  6.0335479227567113E+001  7.0136116507328722E+001  5.7057628727572194E+001  6.6253225703438886E+001  5.3358827397660612E+001  6.1872347737273856E+001  4.9324150892621141E+001  5.7095118892317132E+001  4.5044126004459052E+001  5.2029502083628358E+001  4.0614677101135847E+001  4.6789241274963928E+001  3.6132113622357608E+001  4.1488285321377852E+001  3.1691908589061075E+001 
 3.6239320652486960E+001  2.7388072765685624E+001  3.1152931064819320E+001  2.3310822209400381E+001  2.6335059856860344E+001  1.9543957731292711E+001  2.1883855392452329E+001  1.6163781615329448E+001  1.7888553098322273E+001  1.3238813264025810E+001  1.4429136434908830E+001  1.0827557660673390E+001  1.1573816630584638E+001  8.9779127210270939E+000  9.3783543307355988E+000  7.7265951700368181E+000  7.8854602805543328E+000  7.0982909287873452E+000  7.1238204372349019E+000  7.1055089593037408E+000 
 7.1079558819687829E+000  7.7483218665492348E+000  7.8379360101916866E+000  9.0143649129246555E+000  9.2993755724986524E+000  1.0879093107371038E+001  1.1463730467547542E+001  1.3305916022566159E+001  1.4288435250177873E+001  1.6247058289898941E+001  1.7717874753217416E+001  1.9644118082239562E+001  2.1684007741388459E+001  2.3428651668933149E+001  2.6107000564992074E+001  2.7524409332523913E+001  3.0897779445347307E+001  3.1847631596726860E+001  3.5958392773797613E+001  3.6308099328255636E+001 
 4.1183080532684649E+001  4.0811777660403514E+001  4.6461432133163903E+001  4.5263048812825105E+001  5.1680910421191157E+001  4.9565559058230171E+001  5.6727816825935598E+001  5.3623215317299575E+001  6.1488524120476846E+001  5.7345220334418464E+001  6.5855308204987622E+001  6.0646278504818952E+001  6.9726612444357599E+001  6.3448251685924212E+001  7.3009087069904240E+001  6.5685224802335171E+001  7.5623593671971548E+001  6.7302407726555046E+001  7.7503974108046464E+001  6.8257449909597597E+001 
 7.8598657789718388E+001  6.8524697665462938E+001  7.8875849135840241E+001  6.8096607981547848E+001  7.8325276580879631E+001  6.6981758441387129E+001  7.6955906175646547E+001  6.5205402204587187E+001  7.4796787800086904E+001  6.2812931585606904E+001  7.1901228024367228E+001  5.9866103898903312E+001  6.8342308847186189E+001  5.6442142270777673E+001  6.4212000245437949E+001  5.2634586916183046E+001  5.9622163870293249E+001  4.8547644270117424E+001  5.4697827774292023E+001  4.4294404853610324E+001 