# vtk DataFile Version 4.2
vtk output
ASCII
DATASET UNSTRUCTURED_GRID
POINTS 3900 float
0.1 0 0.0078125 0.1 0 0 0.0994522 0.0104528 0.0078125 
0.0994522 0.0104528 0 0.0978148 0.0207912 0.0078125 0.0978148 0.0207912 0 
0.0951057 0.0309017 0.0078125 0.0951057 0.0309017 0 0.0913545 0.0406737 0.0078125 
0.0913545 0.0406737 0 0.0866025 0.05 0.0078125 0.0866025 0.05 0 
0.0809017 0.0587785 0.0078125 0.0809017 0.0587785 0 0.0743145 0.0669131 0.0078125 
0.0743145 0.0669131 0 0.0669131 0.0743145 0.0078125 0.0669131 0.0743145 0 
0.0587785 0.0809017 0.0078125 0.0587785 0.0809017 0 0.05 0.0866025 0.0078125 
0.05 0.0866025 0 0.0406737 0.0913545 0.0078125 0.0406737 0.0913545 0 
0.0309017 0.0951057 0.0078125 0.0309017 0.0951057 0 0.0207912 0.0978148 0.0078125 
0.0207912 0.0978148 0 0.0104528 0.0994522 0.0078125 0.0104528 0.0994522 0 
6.12323e-18 0.1 0.0078125 6.12323e-18 0.1 0 -0.0104528 0.0994522 0.0078125 
-0.0104528 0.0994522 0 -0.0207912 0.0978148 0.0078125 -0.0207912 0.0978148 0 
-0.0309017 0.0951057 0.0078125 -0.0309017 0.0951057 0 -0.0406737 0.0913545 0.0078125 
-0.0406737 0.0913545 0 -0.05 0.0866025 0.0078125 -0.05 0.0866025 0 
-0.0587785 0.0809017 0.0078125 -0.0587785 0.0809017 0 -0.0669131 0.0743145 0.0078125 
-0.0669131 0.0743145 0 -0.0743145 0.0669131 0.0078125 -0.0743145 0.0669131 0 
-0.0809017 0.0587785 0.0078125 -0.0809017 0.0587785 0 -0.0866025 0.05 0.0078125 
-0.0866025 0.05 0 -0.0913545 0.0406737 0.0078125 -0.0913545 0.0406737 0 
-0.0951057 0.0309017 0.0078125 -0.0951057 0.0309017 0 -0.0978148 0.0207912 0.0078125 
-0.0978148 0.0207912 0 -0.0994522 0.0104528 0.0078125 -0.0994522 0.0104528 0 
-0.1 1.22465e-17 0.0078125 -0.1 1.22465e-17 0 -0.0994522 -0.0104528 0.0078125 
-0.0994522 -0.0104528 0 -0.0978148 -0.0207912 0.0078125 -0.0978148 -0.0207912 0 
-0.0951057 -0.0309017 0.0078125 -0.0951057 -0.0309017 0 -0.0913545 -0.0406737 0.0078125 
-0.0913545 -0.0406737 0 -0.0866025 -0.05 0.0078125 -0.0866025 -0.05 0 
-0.0809017 -0.0587785 0.0078125 -0.0809017 -0.0587785 0 -0.0743145 -0.0669131 0.0078125 
-0.0743145 -0.0669131 0 -0.0669131 -0.0743145 0.0078125 -0.0669131 -0.0743145 0 
-0.0587785 -0.0809017 0.0078125 -0.0587785 -0.0809017 0 -0.05 -0.0866025 0.0078125 
-0.05 -0.0866025 0 -0.0406737 -0.0913545 0.0078125 -0.0406737 -0.0913545 0 
-0.0309017 -0.0951057 0.0078125 -0.0309017 -0.0951057 0 -0.0207912 -0.0978148 0.0078125 
-0.0207912 -0.0978148 0 -0.0104528 -0.0994522 0.0078125 -0.0104528 -0.0994522 0 
-1.83697e-17 -0.1 0.0078125 -1.83697e-17 -0.1 0 0.0104528 -0.0994522 0.0078125 
0.0104528 -0.0994522 0 0.0207912 -0.0978148 0.0078125 0.0207912 -0.0978148 0 
0.0309017 -0.0951057 0.0078125 0.0309017 -0.0951057 0 0.0406737 -0.0913545 0.0078125 
0.0406737 -0.0913545 0 0.05 -0.0866025 0.0078125 0.05 -0.0866025 0 
0.0587785 -0.0809017 0.0078125 0.0587785 -0.0809017 0 0.0669131 -0.0743145 0.0078125 
0.0669131 -0.0743145 0 0.0743145 -0.0669131 0.0078125 0.0743145 -0.0669131 0 
0.0809017 -0.0587785 0.0078125 0.0809017 -0.0587785 0 0.0866025 -0.05 0.0078125 
0.0866025 -0.05 0 0.0913545 -0.0406737 0.0078125 0.0913545 -0.0406737 0 
0.0951057 -0.0309017 0.0078125 0.0951057 -0.0309017 0 0.0978148 -0.0207912 0.0078125 
0.0978148 -0.0207912 0 0.0994522 -0.0104528 0.0078125 0.0994522 -0.0104528 0 
0.1 0 0.015625 0.0994522 0.0104528 0.015625 0.0978148 0.0207912 0.015625 
0.0951057 0.0309017 0.015625 0.0913545 0.0406737 0.015625 0.0866025 0.05 0.015625 
0.0809017 0.0587785 0.015625 0.0743145 0.0669131 0.015625 0.0669131 0.0743145 0.015625 
0.0587785 0.0809017 0.015625 0.05 0.0866025 0.015625 0.0406737 0.0913545 0.015625 
0.0309017 0.0951057 0.015625 0.0207912 0.0978148 0.015625 0.0104528 0.0994522 0.015625 
6.12323e-18 0.1 0.015625 -0.0104528 0.0994522 0.015625 -0.0207912 0.0978148 0.015625 
-0.0309017 0.0951057 0.015625 -0.0406737 0.0913545 0.015625 -0.05 0.0866025 0.015625 
-0.0587785 0.0809017 0.015625 -0.0669131 0.0743145 0.015625 -0.0743145 0.0669131 0.015625 
-0.0809017 0.0587785 0.015625 -0.0866025 0.05 0.015625 -0.0913545 0.0406737 0.015625 
-0.0951057 0.0309017 0.015625 -0.0978148 0.0207912 0.015625 -0.0994522 0.0104528 0.015625 
-0.1 1.22465e-17 0.015625 -0.0994522 -0.0104528 0.015625 -0.0978148 -0.0207912 0.015625 
-0.0951057 -0.0309017 0.015625 -0.0913545 -0.0406737 0.015625 -0.0866025 -0.05 0.015625 
-0.0809017 -0.0587785 0.015625 -0.0743145 -0.0669131 0.015625 -0.0669131 -0.0743145 0.015625 
-0.0587785 -0.0809017 0.015625 -0.05 -0.0866025 0.015625 -0.0406737 -0.0913545 0.015625 
-0.0309017 -0.0951057 0.015625 -0.0207912 -0.0978148 0.015625 -0.0104528 -0.0994522 0.015625 
-1.83697e-17 -0.1 0.015625 0.0104528 -0.0994522 0.015625 0.0207912 -0.0978148 0.015625 
0.0309017 -0.0951057 0.015625 0.0406737 -0.0913545 0.015625 0.05 -0.0866025 0.015625 
0.0587785 -0.0809017 0.015625 0.0669131 -0.0743145 0.015625 0.0743145 -0.0669131 0.015625 
0.0809017 -0.0587785 0.015625 0.0866025 -0.05 0.015625 0.0913545 -0.0406737 0.015625 
0.0951057 -0.0309017 0.015625 0.0978148 -0.0207912 0.015625 0.0994522 -0.0104528 0.015625 
0.1 0 0.0234375 0.0994522 0.0104528 0.0234375 0.0978148 0.0207912 0.0234375 
0.0951057 0.0309017 0.0234375 0.0913545 0.0406737 0.0234375 0.0866025 0.05 0.0234375 
0.0809017 0.0587785 0.0234375 0.0743145 0.0669131 0.0234375 0.0669131 0.0743145 0.0234375 
0.0587785 0.0809017 0.0234375 0.05 0.0866025 0.0234375 0.0406737 0.0913545 0.0234375 
0.0309017 0.0951057 0.0234375 0.0207912 0.0978148 0.0234375 0.0104528 0.0994522 0.0234375 
6.12323e-18 0.1 0.0234375 -0.0104528 0.0994522 0.0234375 -0.0207912 0.0978148 0.0234375 
-0.0309017 0.0951057 0.0234375 -0.0406737 0.0913545 0.0234375 -0.05 0.0866025 0.0234375 
-0.0587785 0.0809017 0.0234375 -0.0669131 0.0743145 0.0234375 -0.0743145 0.0669131 0.0234375 
-0.0809017 0.0587785 0.0234375 -0.0866025 0.05 0.0234375 -0.0913545 0.0406737 0.0234375 
-0.0951057 0.0309017 0.0234375 -0.0978148 0.0207912 0.0234375 -0.0994522 0.0104528 0.0234375 
-0.1 1.22465e-17 0.0234375 -0.0994522 -0.0104528 0.0234375 -0.0978148 -0.0207912 0.0234375 
-0.0951057 -0.0309017 0.0234375 -0.0913545 -0.0406737 0.0234375 -0.0866025 -0.05 0.0234375 
-0.0809017 -0.0587785 0.0234375 -0.0743145 -0.0669131 0.0234375 -0.0669131 -0.0743145 0.0234375 
-0.0587785 -0.0809017 0.0234375 -0.05 -0.0866025 0.0234375 -0.0406737 -0.0913545 0.0234375 
-0.0309017 -0.0951057 0.0234375 -0.0207912 -0.0978148 0.0234375 -0.0104528 -0.0994522 0.0234375 
-1.83697e-17 -0.1 0.0234375 0.0104528 -0.0994522 0.0234375 0.0207912 -0.0978148 0.0234375 
0.0309017 -0.0951057 0.0234375 0.0406737 -0.0913545 0.0234375 0.05 -0.0866025 0.0234375 
0.0587785 -0.0809017 0.0234375 0.0669131 -0.0743145 0.0234375 0.0743145 -0.0669131 0.0234375 
0.0809017 -0.0587785 0.0234375 0.0866025 -0.05 0.0234375 0.0913545 -0.0406737 0.0234375 
0.0951057 -0.0309017 0.0234375 0.0978148 -0.0207912 0.0234375 0.0994522 -0.0104528 0.0234375 
0.1 0 0.03125 0.0994522 0.0104528 0.03125 0.0978148 0.0207912 0.03125 
0.0951057 0.0309017 0.03125 0.0913545 0.0406737 0.03125 0.0866025 0.05 0.03125 
0.0809017 0.0587785 0.03125 0.0743145 0.0669131 0.03125 0.0669131 0.0743145 0.03125 
0.0587785 0.0809017 0.03125 0.05 0.0866025 0.03125 0.0406737 0.0913545 0.03125 
0.0309017 0.0951057 0.03125 0.0207912 0.0978148 0.03125 0.0104528 0.0994522 0.03125 
6.12323e-18 0.1 0.03125 -0.0104528 0.0994522 0.03125 -0.0207912 0.0978148 0.03125 
-0.0309017 0.0951057 0.03125 -0.0406737 0.0913545 0.03125 -0.05 0.0866025 0.03125 
-0.0587785 0.0809017 0.03125 -0.0669131 0.0743145 0.03125 -0.0743145 0.0669131 0.03125 
-0.0809017 0.0587785 0.03125 -0.0866025 0.05 0.03125 -0.0913545 0.0406737 0.03125 
-0.0951057 0.0309017 0.03125 -0.0978148 0.0207912 0.03125 -0.0994522 0.0104528 0.03125 
-0.1 1.22465e-17 0.03125 -0.0994522 -0.0104528 0.03125 -0.0978148 -0.0207912 0.03125 
-0.0951057 -0.0309017 0.03125 -0.0913545 -0.0406737 0.03125 -0.0866025 -0.05 0.03125 
-0.0809017 -0.0587785 0.03125 -0.0743145 -0.0669131 0.03125 -0.0669131 -0.0743145 0.03125 
-0.0587785 -0.0809017 0.03125 -0.05 -0.0866025 0.03125 -0.0406737 -0.0913545 0.03125 
-0.0309017 -0.0951057 0.03125 -0.0207912 -0.0978148 0.03125 -0.0104528 -0.0994522 0.03125 
-1.83697e-17 -0.1 0.03125 0.0104528 -0.0994522 0.03125 0.0207912 -0.0978148 0.03125 
0.0309017 -0.0951057 0.03125 0.0406737 -0.0913545 0.03125 0.05 -0.0866025 0.03125 
0.0587785 -0.0809017 0.03125 0.0669131 -0.0743145 0.03125 0.0743145 -0.0669131 0.03125 
0.0809017 -0.0587785 0.03125 0.0866025 -0.05 0.03125 0.0913545 -0.0406737 0.03125 
0.0951057 -0.0309017 0.03125 0.0978148 -0.0207912 0.03125 0.0994522 -0.0104528 0.03125 
0.1 0 0.0390625 0.0994522 0.0104528 0.0390625 0.0978148 0.0207912 0.0390625 
0.0951057 0.0309017 0.0390625 0.0913545 0.0406737 0.0390625 0.0866025 0.05 0.0390625 
0.0809017 0.0587785 0.0390625 0.0743145 0.0669131 0.0390625 0.0669131 0.0743145 0.0390625 
0.0587785 0.0809017 0.0390625 0.05 0.0866025 0.0390625 0.0406737 0.0913545 0.0390625 
0.0309017 0.0951057 0.0390625 0.0207912 0.0978148 0.0390625 0.0104528 0.0994522 0.0390625 
6.12323e-18 0.1 0.0390625 -0.0104528 0.0994522 0.0390625 -0.0207912 0.0978148 0.0390625 
-0.0309017 0.0951057 0.0390625 -0.0406737 0.0913545 0.0390625 -0.05 0.0866025 0.0390625 
-0.0587785 0.0809017 0.0390625 -0.0669131 0.0743145 0.0390625 -0.0743145 0.0669131 0.0390625 
-0.0809017 0.0587785 0.0390625 -0.0866025 0.05 0.0390625 -0.0913545 0.0406737 0.0390625 
-0.0951057 0.0309017 0.0390625 -0.0978148 0.0207912 0.0390625 -0.0994522 0.0104528 0.0390625 
-0.1 1.22465e-17 0.0390625 -0.0994522 -0.0104528 0.0390625 -0.0978148 -0.0207912 0.0390625 
-0.0951057 -0.0309017 0.0390625 -0.0913545 -0.0406737 0.0390625 -0.0866025 -0.05 0.0390625 
-0.0809017 -0.0587785 0.0390625 -0.0743145 -0.0669131 0.0390625 -0.0669131 -0.0743145 0.0390625 
-0.0587785 -0.0809017 0.0390625 -0.05 -0.0866025 0.0390625 -0.0406737 -0.0913545 0.0390625 
-0.0309017 -0.0951057 0.0390625 -0.0207912 -0.0978148 0.0390625 -0.0104528 -0.0994522 0.0390625 
-1.83697e-17 -0.1 0.0390625 0.0104528 -0.0994522 0.0390625 0.0207912 -0.0978148 0.0390625 
[...]
CELL_DATA 7680
SCALARS q double
LOOKUP_TABLE default
0.033206574254 0.030146718727 0.02766033503 0.024709649061 0.022143695642 0.019451058018 0.017013669071 0.014686905271 0.012532629033 
0.010627811598 0.0088448175884 0.007366557548 0.0059785311645 0.0048899803882 0.0038698884044 0.0031083401483 0.0023981174101 0.0018911876438 
0.0014210297509 0.00109949565 0.00080239687526 0.00060790760408 0.00042790745932 0.00031581280211 0.00021072071352 0.00014944833778 8.9937514334e-05 
5.8597649738e-05 2.5599554139e-05 1.1133844457e-05 -7.0820228571e-06 -1.2444550985e-05 -2.2774799726e-05 -2.3461880051e-05 -2.9822690525e-05 -2.8258415629e-05 
-3.2829408287e-05 -3.0289915034e-05 -3.4293591765e-05 -3.1423125876e-05 -3.5592689477e-05 -3.2701786958e-05 -3.7559680315e-05 -3.4792856368e-05 -4.0826434945e-05 
-3.8256505388e-05 -4.6049310809e-05 -4.3733914226e-05 -5.4094003342e-05 -5.2116492585e-05 -6.6235871594e-05 -6.4745443113e-05 -8.4424290169e-05 -8.3686874879e-05 
-0.00011165961987 -0.00011212964997 -0.00015253170481 -0.000154952754 -0.00021395669947 -0.00021949211875 -0.00030610310842 -0.00031647986331 -0.00044338658632 
-0.00046099838253 -0.00064520160709 -0.00067305487754 -0.00093573377932 -0.00097703730578 -0.0013418176832 -0.0013989455734 -0.0018875621955 -0.0019601318529 
-0.002584698375 -0.0026666974215 -0.0034186919959 -0.0034950272541 -0.0043327363209 -0.0043762051393 -0.0052143113588 -0.0051845373403 -0.005890799713 
-0.0057367160825 -0.0061401140181 -0.0058067952965 -0.005718556953 -0.0051576819366 -0.0044020587579 -0.0035836479135 -0.0020311360692 -0.00095332580793 
0.0014525628681 0.0027585145835 0.0059879128838 0.0074585999134 0.011397818036 0.012943878888 0.017411275034 0.018926636301 0.023696025203 
0.025067706345 0.029892939931 0.031009618231 0.03564570377 0.036404425534 0.040623343975 0.040934872348 0.044536822749 0.044330709888 
0.047152930029 0.046383288551 0.048308619418 0.04696085966 0.047927037371 0.04602472679 0.046033449822 0.043643286249 0.042766146971 
0.039998323421 0.038375658892 0.035377195263 0.037167321289 0.033908005081 0.031232351656 0.028044537133 0.025241741462 0.02229158594 
0.01959100741 0.017005728164 0.014585157743 0.012438822411 0.010407327012 0.0087181396247 0.0071145285546 0.0058531801348 0.0046582040833 
0.0037634631292 0.0029199277926 0.0023161303296 0.0017500268875 0.0013618560751 0.00099924775666 0.00076132265773 0.0005386682302 0.00039974230296 
0.0002680087531 0.00019108182087 0.00011549163965 7.5619708848e-05 3.3145999795e-05 1.4465709682e-05 -9.2959620458e-06 -1.6377984903e-05 -3.003010014e-05 
-3.1064386836e-05 -3.9565387416e-05 -3.763661078e-05 -4.3786535571e-05 -4.0543607975e-05 -4.5935166605e-05 -4.2224643648e-05 -4.782492899e-05 -4.4063440708e-05 
-5.0566182778e-05 -4.6953324904e-05 -5.5004076341e-05 -5.1644010329e-05 -6.2009303016e-05 -5.8984533053e-05 -7.2716077017e-05 -7.0140943888e-05 -8.8776629273e-05 
-8.6849067736e-05 -0.00011269100023 -0.00011175665115 -0.00014826849463 -0.00014890887863 -0.00020127332548 -0.00020442612155 -0.00028028571531 -0.00028739524404 
-0.00039774538913 -0.00041091783423 -0.00057100163197 -0.00059309362917 -0.00082293898411 -0.00085743516582 -0.0011813797618 -0.0012318251049 -0.0016760735143 
-0.0017447625661 -0.002331909518 -0.0024175812572 -0.0031574177075 -0.0032519651679 -0.0041290285199 -0.0042137563013 -0.0051739669019 -0.0052166116633 
-0.0061573539493 -0.0061115848264 -0.0068805907288 -0.0066895796339 -0.0070967849508 -0.0067014029655 -0.0065442650183 -0.0058947377274 -0.0049924858661 
-0.004060681913 -0.0022889452607 -0.0010778102612 0.0016058021418 0.0030583650099 0.0066042656203 0.0082278617788 0.01250132408 0.014200593308 
0.019001522705 0.020666143579 0.025754959282 0.027269479639 0.032392348044 0.033644127194 0.038553109479 0.039438007754 0.043904847866 
0.044331462323 0.048156424431 0.048050256483 0.051068799102 0.050377585508 0.052467559974 0.051168235362 0.052258967768 0.050365529534 
0.050448017545 0.048018248412 0.047153462611 0.044291524743 0.042612396392 0.039464354091 0.041347907411 0.037906978402 0.035051602257 
0.031636291719 0.028598632541 0.025391896808 0.022421930665 0.019571196788 0.016870893895 0.014470134094 0.012171607582 0.010255135831 
0.0084150441 0.0069636242105 0.0055731053131 0.0045290336057 0.003533721247 0.002819356388 0.0021421231625 0.0016765911249 0.001236843627 
0.00094767107124 0.00067398445048 0.00050290670837 0.00033880276746 0.00024283073943 0.0001474061001 9.6993932556e-05 4.2656292074e-05 1.8680290113e-05 
-1.2127761187e-05 -2.1423723233e-05 -3.9356122041e-05 -4.0880476091e-05 -5.2171909926e-05 -4.9822534554e-05 -5.8045733788e-05 -5.393851144e-05 -6.1154648441e-05 
-5.6394231202e-05 -6.3870397218e-05 -5.9011617962e-05 -6.7662864373e-05 -6.2978917471e-05 -7.3654737774e-05 -6.9292754518e-05 -8.2993434092e-05 -7.9070048602e-05 
-9.7155191167e-05 -9.3825989544e-05 -0.00011826593431 -0.00011579170717 -0.00014950932683 -0.00014833618144 -0.00019568640918 -0.00019655307145 -0.00026398139958 
-0.0002680612696 -0.00036495479163 -0.00037402644128 -0.00051369769553 -0.00053030711466 -0.00073090197886 -0.00075842405108 -0.0010432985561 -0.001085721492 
-0.0014825081233 -0.0015436702115 -0.0020809623578 -0.0021629203175 -0.0028634833221 -0.0029637834708 -0.0038337809288 -0.0039417434263 -0.0049568867877 
-0.0050496244208 -0.0061412664545 -0.0061808811541 -0.0072270898556 -0.0071609178894 -0.0079881868663 -0.0077536288285 -0.0081529784274 -0.0076871456446 
-0.0074439364164 -0.0066964377754 -0.0056278444983 -0.00457341988 -0.0025638056656 -0.0012111349995 0.0017644055062 0.003370207648 0.0072399386901 
0.0090214337942 0.013628558311 0.015484852438 0.020611234191 0.02242863523 0.027822896058 0.029484599236 0.03488758571 0.036280814161 
0.041444335236 0.042464851403 0.047163061688 0.047718159876 0.051753700063 0.051765350161 0.054973645066 0.054383261954 0.056638152232 
0.055413663846 0.056636098795 0.054780727329 0.054949969222 0.052510697671 0.051675001574 0.048747535647 0.047029493986 0.0437562926 
0.045719438326 0.042120240771 0.039099121317 0.035471411813 0.032205345338 0.028747876604 0.025506254559 0.022387044353 0.019396486908 
0.016731070327 0.014148653446 0.011989950502 0.0098929385886 0.0082345039374 0.0066272699996 0.0054172912648 0.004250607253 0.0034111089427 
0.002606167514 0.0020515465927 0.0015216475725 0.0011724766444 0.00083817635928 0.00062885672117 0.00042569754478 0.00030672133318 0.00018699741866 
0.00012365421361 5.456175595e-05 2.3976001961e-05 -1.5725925285e-05 -2.7853686472e-05 -5.1265017672e-05 -5.3471491196e-05 -6.8377112208e-05 -6.5553176888e-05 
-7.6480763436e-05 -7.1322695707e-05 -8.0921794911e-05 -7.4860969993e-05 -8.4780633644e-05 -7.8550478108e-05 -8.9989640996e-05 -8.3960806516e-05 -9.8029977203e-05 
-9.2407855362e-05 -0.00011040374422 -0.0001053513062 -0.00012901964619 -0.00012474691664 -0.00015659443285 -0.00015344265214 -0.00019715354571 -0.00019569444754 
-0.00025670334068 -0.00025786844772 -0.00034412914659 -0.00034937543618 -0.00047232422935 -0.00048382371479 -0.00065943979079 -0.00068024212188 -0.00092992501862 
-0.00096397545647 -0.001314674884 -0.0013664759115 -0.0018491621021 -0.0019227713781 -0.0025680708496 -0.0026650997411 -0.0034950239844 -0.0036114496056 
-0.0046269586809 -0.0047489898553 -0.0059148442637 -0.0060147786985 -0.0072454459872 -0.00727919611 -0.0084315018317 -0.0083397808776 -0.0092181059088 
-0.0089326838636 -0.0093097997979 -0.0087646523994 -0.0084161164942 -0.007561233294 -0.0063056741314 -0.0051197839767 -0.0028542243589 -0.0013526706661 
0.0019268772663 0.0036912827725 0.0078887206865 0.0098315744623 0.014767379934 0.016782868678 0.02222170462 0.024193776006 0.029874449687 
0.0316861687 0.03734686061 0.038886574442 0.044281722229 0.045446254571 0.050355187781 0.051051478731 0.055281618524 0.055428741668 
0.058817336331 0.058350589631 0.060768602871 0.059646548583 0.061006778187 0.059220816784 0.05948994451 0.057074468413 0.056286059183 
0.053325863895 0.051589210334 0.048220306353 0.050246209887 0.046517598148 0.043349295877 0.0395300166 0.036046855789 0.032349894031 
0.028838842247 0.025452671509 0.022164915669 0.019227941274 0.016347099537 0.013933228291 0.011559868247 0.0096782814891 0.0078330475646 
0.0064404707262 0.0050819243307 0.0041020395923 0.0031515078924 0.0024951341244 0.0018606771952 0.0014418115646 0.0010360434258 0.00078157914869 
0.0005316325595 0.0003850705937 0.00023578220025 0.0001566852368 6.9366029796e-05 3.0585753989e-05 -2.0267540815e-05 -3.59934661e-05 -6.6371740872e-05 
-6.9515531257e-05 -8.9071235074e-05 -8.5726342502e-05 -0.00010015815306 -9.3736509318e-05 -0.00010642738598 -9.87707393e-05 -0.0001118524393 -0.00010392315856 
-0.00011895606716 -0.00011125270513 -0.00012967896247 -0.00012248506902 -0.0001459745224 -0.00013951531944 -0.00017029424158 -0.00016485100635 -0.00020608606192 
-0.00020210221797 -0.00025840336708 -0.00025660647552 -0.00033470443357 -0.00033626039689 -0.0004458929762 -0.00045259661886 -0.00060758136659 -0.00062206268749 
-0.00084141018734 -0.00086728780521 -0.0011759903245 -0.0012178252069 -0.0016466334327 -0.001709432672 -0.0022925733723 -0.002380501775 -0.0031500786601 
-0.0032640384587 -0.0042401205235 -0.0043740771577 -0.0055505627669 -0.0056870186689 -0.0070153736985 -0.0071211681188 -0.0084965999627 -0.0085209433963 
-0.0097772910451 -0.0096540993577 -0.010573192151 -0.010228919656 -0.01056656313 -0.0099328653176 -0.0094577555612 -0.0084861541363 -0.007022392494 
-0.0056967956894 -0.0031582348685 -0.0015015536928 0.0020915053419 0.0040183826081 0.0085435750972 0.010649507669 0.015904375822 0.018079394311 
0.023812694384 0.025939515948 0.031882592124 0.033845454477 0.039736718086 0.041426405205 0.047025930554 0.048341533746 0.053436643716 
0.054285765409 0.058691103383 0.058990665548 0.062547233172 0.062226780811 0.064803937121 0.06381250588 0.065315326439 0.063631653033 
0.064013626148 0.061657879027 0.060936094407 0.057979750659 0.056247299082 0.052816954045 0.05488590036 0.051062078826 0.047769755581 
0.043785584369 0.040101770722 0.036182321418 0.032409057333 0.028762539921 0.025174862821 0.021963409308 0.018772613554 0.016093278178 
0.013425767321 0.011306228636 0.0092020704906 0.0076104761772 0.0060389848762 0.004903009868 0.0037878490335 0.0030162317963 0.0022614431515 
0.0017622623184 0.0012728509124 0.0009654976505 0.00065990015536 0.00048049934152 0.00029548924152 0.00019733406606 8.7651348621e-05 3.8780275806e-05 
-2.5961822805e-05 -4.622936362e-05 -8.5408005739e-05 -8.9824457706e-05 -0.00011532325372 -0.0001114262407 -0.00013036847377 -0.0001224452787 -0.0001391211432 
-0.00012952489422 -0.00014667159828 -0.00013665579003 -0.00015629051394 -0.0001465200718 -0.00017050321534 -0.00016136546803 -0.000191833093 -0.00018363604081 
-0.00022340782115 -0.00021652522488 -0.00026957312253 -0.0002645771948 -0.00033662706583 -0.00033443708205 -0.00043376101373 -0.0004358252568 -0.00057424981787 
-0.00058276157394 -0.00077684030938 -0.00079495645937 -0.0010671008958 -0.0010990733029 -0.0014781775498 -0.0015292169535 -0.0020499549021 -0.002125536499 
-0.0028251523271 -0.0029293899612 -0.0038406737745 -0.0039734340708 -0.005113035144 -0.0052657617981 -0.0066183765601 -0.0067692208947 -0.0082704943716 
-0.0083801912733 -0.0099037133164 -0.0099143275854 -0.011269489341 -0.011108109367 -0.012054285508 -0.01164255998 -0.011920555212 -0.011188830857 
-0.010564079283 -0.0094667018 -0.0077732523937 -0.0063005445127 -0.0034733940153 -0.0016566811758 0.0022563848769 0.0043478902187 0.0091967442569 
0.011465551869 0.017025092489 0.01935798387 0.025362818648 0.027642510672 0.033819211261 0.035932471148 0.04202276379 0.043864148373 
0.049636811125 0.051108906186 0.056362059958 0.057374194296 0.061932125233 0.062399912628 0.06610933482 0.065957093199 0.068687149921 
0.067854446203 0.069503129727 0.067955441203 0.068462703239 0.06620456159 0.06556949036 0.062656770299 0.060953503926 0.057500376457 
0.059589992779 0.055710169965 0.052321466229 0.048204873379 0.044342118479 0.040223187034 0.036200320995 0.032305640598 0.028420137026 
0.024935876661 0.021427288262 0.018475478668 0.015498298291 0.013127922319 0.01074481762 0.0089385044763 0.0071327701714 0.0058248448847 
0.0045250681331 0.0036240472901 0.0027318572644 0.002140870363 0.0015542975042 0.0011854588867 0.00081414381439 0.00059593834497 0.00036806759725 
0.00024701930765 0.00011008385638 4.8871072814e-05 -3.3053586017e-05 -5.9015408822e-05 -0.00010923635961 -0.00011536141571 -0.000148405155 -0.00014395054105 
-0.00016865958689 -0.00015897453263 -0.00018075267527 -0.00016882248091 -0.00019116058693 -0.00017860595328 -0.00020409416611 -0.00019179453502 -0.00022281685968 
-0.00021129598213 -0.00025056661868 -0.00024024147686 -0.00029130711434 -0.00028267051082 -0.00035047757879 -0.00034426278677 -0.00043587022059 -0.00043323042737 
-0.00055872575071 -0.00056144632085 -0.00073507589099 -0.00074581514494 -0.00098723867342 -0.0010097520818 -0.0013451425801 -0.0013843752442 -0.0018467857125 
-0.0019086156111 -0.0025366497791 -0.0026269496664 -0.003460436359 -0.0035830574229 -0.0046544146005 -0.0048077933181 -0.0061284674606 -0.0063009489903 
-0.0078440250924 -0.0080087260081 -0.0096913722507 -0.0098022962796 -0.011474235621 -0.011465955756 -0.012911062622 -0.012703981938 -0.013659905718 
-0.013171589262 -0.013366832146 -0.012527523624 -0.011728497857 -0.01049677787 -0.0085523306797 -0.0069261826862 -0.0037967936294 -0.0018167128395 
0.0024194500432 0.0046758349201 0.0098398849522 0.012269288947 0.018114319309 0.020601315239 0.026850001857 0.029278613885 0.035655742246 
0.037916647597 0.04417046419 0.046163320495 0.052074359591 0.053706465637 0.059086366243 0.060269865502 0.06495489455 0.065605019943 
0.069449545446 0.069486072928 0.072360500726 0.071713819339 0.073509905563 0.072131919668 0.072776036509 0.070654508603 0.07012654027 
0.067299663676 0.065652290332 0.062218850643 0.064304434018 0.060412285872 0.056959045304 0.052748048476 0.04873332572 0.044443988574 
0.040189803894 0.03606506776 0.03188917243 0.028138922092 0.024309057874 0.021081684409 0.017782285865 0.015150709341 0.012470137686 
0.010434621936 0.0083735779601 0.0068780393389 0.005372987 0.0043279410809 0.0032801071433 0.0025850441698 0.0018864608591 0.0014467010949 
0.00099834412338 0.00073462546038 0.00045568922286 0.00030733682915 0.00013741746673 6.1212783561e-05 -4.1826474719e-05 -7.4880060736e-05 -0.00013886382078 
-0.00014725829685 -0.00018981641527 -0.00018483821732 -0.0002168710873 -0.00020514707083 -0.00023341468906 -0.00021870534776 -0.00024762954217 -0.0002320149757 
-0.00026489912159 -0.00024953294565 -0.00028941161956 -0.00027499516468 -0.00032529405354 -0.00031238638509 -0.00037753579211 -0.00036678166319 -0.00045289715018 
-0.0004452296693 -0.00056094810415 -0.00055780344746 -0.00071532927551 -0.00071889137198 -0.00093524325889 -0.00094870720777 -0.0012470265043 -0.001274818716 
-0.0016853739936 -0.0017331844493 -0.0022933665461 -0.0023677351453 -0.003119935026 -0.0032270197613 -0.0042129881816 -0.004356104892 -0.0056065324083 
-0.0057822210529 -0.0073012549603 -0.0074941226505 -0.0092405858642 -0.0094180067765 -0.011287875307 -0.011396539866 -0.013213633385 -0.013180405111 
-0.01470251936 -0.014441456737 -0.015385966057 -0.014811495723 -0.014898060771 -0.013941713651 -0.012942562233 -0.011568654961 -0.0093525534034 
-0.0075679491084 -0.0041250882754 -0.0019800807899 0.0025785135327 0.0049979635759 0.010464233186 0.013049769686 0.019156416286 0.021791561915 
0.028251984816 0.03082342883 0.037363853211 0.039767554599 0.046145999913 0.048288004152 0.05429972162 0.056093220754 0.061565931434 
0.062926970877 0.067711116602 0.068555541016 0.072515019087 0.072758898125 0.075766912868 0.075331987987 0.077275105765 0.076099704727 
0.076890996954 0.07494531463 0.074544640225 0.07184739377 0.070283807458 0.066915580614 0.068970527375 0.065113472784 0.061631310026 
0.057369030692 0.053234402172 0.048809694028 0.04434828133 0.040017728342 0.03556463514 0.031560815362 0.027411164731 0.023909657581 
0.020279154253 0.017379156002 0.014384744884 0.012107303091 0.0097706276267 0.0080724182453 0.0063411009966 0.0051372083725 0.0039144951399 
0.0031024398298 0.0022757182405 0.0017548022433 0.0012167900479 0.00090009169226 0.00056074471678 0.00038006091038 0.0001704957331 7.6204683173e-05 
-5.260575015e-05 -9.4432224869e-05 -0.00017545439335 -0.00018683240324 -0.00024130772327 -0.00023589725923 -0.00027716887012 -0.00026312089614 -0.00029958735944 
-0.00028160516883 -0.00031882937324 -0.00029956308787 -0.00034172944958 -0.00032268004976 -0.00037362534216 -0.0003557230879 -0.00041974185422 -0.00040372927474 
-0.00048631706154 -0.00047303124736 -0.00058169408593 -0.00057231411767 -0.00071753899262 -0.00071384045999 -0.00091027468785 -0.00091490816006 -0.0011827095535 
-0.0011994825559 -0.0015656415585 -0.001599721558 -0.0020988886628 -0.0021567488866 -0.0028307239178 -0.0029195311215 -0.0038141646047 -0.0039401999099 
-0.0050982367033 -0.0052639402396 -0.0067126689464 -0.0069121444046 -0.0086460084927 -0.0088594304039 -0.010820144345 -0.011008432116 -0.013068093416 
-0.013170115695 -0.015124934319 -0.015059787449 -0.016641540169 -0.016317500354 -0.017225531734 -0.016555060061 -0.016504416707 -0.015421887752 
-0.014195974549 -0.012672996151 -0.010165760081 -0.0082192246055 -0.0044545395206 -0.0021450074855 0.0027313128484 0.0053098263811 0.011060794133 
0.013795750895 0.020135677189 0.02291080608 0.029546868768 0.032252901876 0.038916163078 0.0414556704 0.047917143098 0.050203771223 
0.056276214875 0.058230161034 0.06375971722 0.065301988485 0.070155264965 0.071203353639 0.075255537758 0.075722778793 0.078851431365 
0.078651686404 0.080739412915 0.079797757157 0.080744939564 0.079013580399 0.078759659431 0.076236401581 0.074785063121 0.071529715453 
0.073526044841 0.06975434486 0.066282059195 0.062016078952 0.057798348191 0.053278950744 0.048640176245 0.044134214974 0.039423165623 
0.035184138777 0.030721704079 0.026952549812 0.022986390163 0.019814501755 0.016492701589 0.013962942968 0.011331630894 0.0094167573453 
0.0074382671385 0.0060608201713 0.0046432406742 0.0037008082669 0.0027286399273 0.002115605211 0.0014740332509 0.001096134085 0.00068583064598 
0.00046713963337 0.0002102511438 9.4291049925e-05 -6.5760400646e-05 -0.0001183661508 -0.00022033963154 -0.00023560139937 -0.00030490275223 -0.00029923106623 
-0.00035207842465 -0.00033542669258 -0.00038218236098 -0.00036039100182 -0.00040800545546 -0.0003844260175 -0.00043816356707 -0.00041473328452 -0.00047941226947 
-0.00045735372693 -0.000538321445 -0.00051861182654 -0.0006226374382 -0.00060635525268 -0.00074258374143 -0.00073120838887 -0.00091227480355 -0.00090798537556 
-0.0011513254506 -0.0011573132955 -0.0014865952807 -0.0015073580665 -0.0019537641862 -0.0019952746758 -0.0025980510103 -0.0026675849977 -0.0034728709087 
-0.003578149605 -0.0046347057078 -0.0047819135038 -0.0061322539436 -0.0063225418379 -0.0079885459736 -0.0082129695458 -0.010176684336 -0.010410247825 
-0.012593301421 -0.01278977603 -0.015037835523 -0.015127865138 -0.017208280002 -0.017103326903 -0.018722645838 -0.018326005974 -0.019168638187 
-0.018392203763 -0.018173549781 -0.016956234398 -0.015476658336 -0.013798927442 -0.010982808526 -0.0088726195628 -0.0047810766017 -0.0023095320351 
0.0028755621412 0.0056068749896 0.011620551922 0.014495957533 0.021036716754 0.023941479648 0.030713678343 0.033543938572 0.040286966436 
0.042953157834 0.049454127328 0.05187860527 0.057970330484 0.060081311965 0.065630403422 0.067354862518 0.07224582717 0.073503958352 
0.077624873066 0.078328363799 0.081562687905 0.081618514437 0.083846279743 0.083166923182 0.084276765406 0.082796437545 0.082707448791 
0.080402029842 0.079091283894 0.075997575024 0.077906534441 0.074272235466 0.070851079873 0.066632603584 0.06237279164 0.057804516491 
0.053023809063 0.048378866263 0.043435283461 0.038985544091 0.034223274957 0.030198461789 0.025897056163 0.022454138804 0.018794906371 