# vtk DataFile Version 4.2
vtk output
ASCII
DATASET UNSTRUCTURED_GRID
POINTS 2178 float
0 0 0 0 0 0.015625 0 0 0 
0 0 0.015625 0 0 0 0 0 0.015625 
0 0 0 0 0 0.015625 0 0 0 
0 0 0.015625 0 0 0 0 0 0.015625 
0 0 0 0 0 0.015625 0 0 0 
0 0 0.015625 0 0 0 0 0 0.015625 
0 0 0 0 0 0.015625 0 0 0 
0 0 0.015625 0 0 0 0 0 0.015625 
0 0 0 0 0 0.015625 0 0 0 
0 0 0.015625 0 0 0 0 0 0.015625 
0 0 0 0 0 0.015625 0 0 0 
0 0 0.015625 0 0 0 0 0 0.015625 
0 0 0 0 0 0.015625 0 0 0 
0 0 0.015625 0 0 0 0 0 0.015625 
0 0 0 0 0 0.015625 0 0 0 
0 0 0.015625 0 0 0 0 0 0.015625 
0 0 0 0 0 0.015625 0 0 0 
0 0 0.015625 0 0 0 0 0 0.015625 
0 0 0 0 0 0.015625 0 0 0 
0 0 0.015625 0 0 0 0 0 0.015625 
0 0 0 0 0 0.015625 0 0 0 
0 0 0.015625 0 0 0 0 0 0.015625 
0 0 0.03125 0 0 0.03125 0 0 0.03125 
0 0 0.03125 0 0 0.03125 0 0 0.03125 
0 0 0.03125 0 0 0.03125 0 0 0.03125 
0 0 0.03125 0 0 0.03125 0 0 0.03125 
0 0 0.03125 0 0 0.03125 0 0 0.03125 
0 0 0.03125 0 0 0.03125 0 0 0.03125 
0 0 0.03125 0 0 0.03125 0 0 0.03125 
0 0 0.03125 0 0 0.03125 0 0 0.03125 
0 0 0.03125 0 0 0.03125 0 0 0.03125 
0 0 0.03125 0 0 0.03125 0 0 0.03125 
0 0 0.03125 0 0 0.03125 0 0 0.03125 
0 0 0.046875 0 0 0.0625 0 0 0.046875 
0 0 0.0625 0 0 0.046875 0 0 0.0625 
0 0 0.046875 0 0 0.0625 0 0 0.046875 
0 0 0.0625 0 0 0.046875 0 0 0.0625 
0 0 0.046875 0 0 0.0625 0 0 0.046875 
0 0 0.0625 0 0 0.046875 0 0 0.0625 
0 0 0.046875 0 0 0.0625 0 0 0.046875 
0 0 0.0625 0 0 0.046875 0 0 0.0625 
0 0 0.046875 0 0 0.0625 0 0 0.046875 
0 0 0.0625 0 0 0.046875 0 0 0.0625 
0 0 0.046875 0 0 0.0625 0 0 0.046875 
0 0 0.0625 0 0 0.046875 0 0 0.0625 
0 0 0.046875 0 0 0.0625 0 0 0.046875 
0 0 0.0625 0 0 0.046875 0 0 0.0625 
0 0 0.046875 0 0 0.0625 0 0 0.046875 
0 0 0.0625 0 0 0.046875 0 0 0.0625 
0 0 0.046875 0 0 0.0625 0 0 0.046875 
0 0 0.0625 0 0 0.046875 0 0 0.0625 
0 0 0.046875 0 0 0.0625 0 0 0.046875 
0 0 0.0625 0 0 0.046875 0 0 0.0625 
0 0 0.046875 0 0 0.0625 0 0 0.046875 
0 0 0.0625 0 0 0.046875 0 0 0.0625 
0 0 0.109375 0 0 0.125 0 0 0.109375 
0 0 0.125 0 0 0.109375 0 0 0.125 
0 0 0.109375 0 0 0.125 0 0 0.109375 
0 0 0.125 0 0 0.109375 0 0 0.125 
0 0 0.109375 0 0 0.125 0 0 0.109375 
0 0 0.125 0 0 0.109375 0 0 0.125 
0 0 0.109375 0 0 0.125 0 0 0.109375 
0 0 0.125 0 0 0.109375 0 0 0.125 
0 0 0.109375 0 0 0.125 0 0 0.109375 
0 0 0.125 0 0 0.109375 0 0 0.125 
0 0 0.109375 0 0 0.125 0 0 0.109375 
0 0 0.125 0 0 0.109375 0 0 0.125 
0 0 0.109375 0 0 0.125 0 0 0.109375 
0 0 0.125 0 0 0.109375 0 0 0.125 
0 0 0.109375 0 0 0.125 0 0 0.109375 
0 0 0.125 0 0 0.109375 0 0 0.125 
0 0 0.109375 0 0 0.125 0 0 0.109375 
0 0 0.125 0 0 0.109375 0 0 0.125 
0 0 0.109375 0 0 0.125 0 0 0.109375 
0 0 0.125 0 0 0.109375 0 0 0.125 
0 0 0.109375 0 0 0.125 0 0 0.109375 
0 0 0.125 0 0 0.109375 0 0 0.125 
0 0 0.09375 0 0 0.09375 0 0 0.09375 
0 0 0.09375 0 0 0.09375 0 0 0.09375 
0 0 0.09375 0 0 0.09375 0 0 0.09375 
0 0 0.09375 0 0 0.09375 0 0 0.09375 
0 0 0.09375 0 0 0.09375 0 0 0.09375 
0 0 0.09375 0 0 0.09375 0 0 0.09375 
0 0 0.09375 0 0 0.09375 0 0 0.09375 
0 0 0.09375 0 0 0.09375 0 0 0.09375 
0 0 0.09375 0 0 0.09375 0 0 0.09375 
0 0 0.09375 0 0 0.09375 0 0 0.09375 
0 0 0.09375 0 0 0.09375 0 0 0.09375 
0 0 0.078125 0 0 0.078125 0 0 0.078125 
0 0 0.078125 0 0 0.078125 0 0 0.078125 
0 0 0.078125 0 0 0.078125 0 0 0.078125 
0 0 0.078125 0 0 0.078125 0 0 0.078125 
0 0 0.078125 0 0 0.078125 0 0 0.078125 
0 0 0.078125 0 0 0.078125 0 0 0.078125 
0 0 0.078125 0 0 0.078125 0 0 0.078125 
0 0 0.078125 0 0 0.078125 0 0 0.078125 
0 0 0.078125 0 0 0.078125 0 0 0.078125 
0 0 0.078125 0 0 0.078125 0 0 0.078125 
0 0 0.078125 0 0 0.078125 0 0 0.078125 
0 0 0.234375 0 0 0.25 0 0 0.234375 
0 0 0.25 0 0 0.234375 0 0 0.25 
0 0 0.234375 0 0 0.25 0 0 0.234375 
0 0 0.25 0 0 0.234375 0 0 0.25 
0 0 0.234375 0 0 0.25 0 0 0.234375 
0 0 0.25 0 0 0.234375 0 0 0.25 
0 0 0.234375 0 0 0.25 0 0 0.234375 
0 0 0.25 0 0 0.234375 0 0 0.25 
0 0 0.234375 0 0 0.25 0 0 0.234375 
0 0 0.25 0 0 0.234375 0 0 0.25 
0 0 0.234375 0 0 0.25 0 0 0.234375 
0 0 0.25 0 0 0.234375 0 0 0.25 
0 0 0.234375 0 0 0.25 0 0 0.234375 
0 0 0.25 0 0 0.234375 0 0 0.25 
0 0 0.234375 0 0 0.25 0 0 0.234375 
0 0 0.25 0 0 0.234375 0 0 0.25 
0 0 0.234375 0 0 0.25 0 0 0.234375 
0 0 0.25 0 0 0.234375 0 0 0.25 
0 0 0.234375 0 0 0.25 0 0 0.234375 
0 0 0.25 0 0 0.234375 0 0 0.25 
0 0 0.234375 0 0 0.25 0 0 0.234375 
0 0 0.25 0 0 0.234375 0 0 0.25 
0 0 0.21875 0 0 0.21875 0 0 0.21875 
0 0 0.21875 0 0 0.21875 0 0 0.21875 
0 0 0.21875 0 0 0.21875 0 0 0.21875 
0 0 0.21875 0 0 0.21875 0 0 0.21875 
0 0 0.21875 0 0 0.21875 0 0 0.21875 
0 0 0.21875 0 0 0.21875 0 0 0.21875 
0 0 0.21875 0 0 0.21875 0 0 0.21875 
0 0 0.21875 0 0 0.21875 0 0 0.21875 
0 0 0.21875 0 0 0.21875 0 0 0.21875 
0 0 0.21875 0 0 0.21875 0 0 0.21875 
0 0 0.21875 0 0 0.21875 0 0 0.21875 
0 0 0.203125 0 0 0.203125 0 0 0.203125 
0 0 0.203125 0 0 0.203125 0 0 0.203125 
0 0 0.203125 0 0 0.203125 0 0 0.203125 
0 0 0.203125 0 0 0.203125 0 0 0.203125 
0 0 0.203125 0 0 0.203125 0 0 0.203125 
0 0 0.203125 0 0 0.203125 0 0 0.203125 
0 0 0.203125 0 0 0.203125 0 0 0.203125 
0 0 0.203125 0 0 0.203125 0 0 0.203125 
0 0 0.203125 0 0 0.203125 0 0 0.203125 
0 0 0.203125 0 0 0.203125 0 0 0.203125 
0 0 0.203125 0 0 0.203125 0 0 0.203125 
0 0 0.1875 0 0 0.1875 0 0 0.1875 
0 0 0.1875 0 0 0.1875 0 0 0.1875 
0 0 0.1875 0 0 0.1875 0 0 0.1875 
0 0 0.1875 0 0 0.1875 0 0 0.1875 
0 0 0.1875 0 0 0.1875 0 0 0.1875 
0 0 0.1875 0 0 0.1875 0 0 0.1875 
0 0 0.1875 0 0 0.1875 0 0 0.1875 
0 0 0.1875 0 0 0.1875 0 0 0.1875 
0 0 0.1875 0 0 0.1875 0 0 0.1875 
0 0 0.1875 0 0 0.1875 0 0 0.1875 
0 0 0.1875 0 0 0.1875 0 0 0.1875 
0 0 0.171875 0 0 0.171875 0 0 0.171875 
0 0 0.171875 0 0 0.171875 0 0 0.171875 
0 0 0.171875 0 0 0.171875 0 0 0.171875 
0 0 0.171875 0 0 0.171875 0 0 0.171875 
0 0 0.171875 0 0 0.171875 0 0 0.171875 
0 0 0.171875 0 0 0.171875 0 0 0.171875 
0 0 0.171875 0 0 0.171875 0 0 0.171875 
0 0 0.171875 0 0 0.171875 0 0 0.171875 
0 0 0.171875 0 0 0.171875 0 0 0.171875 
0 0 0.171875 0 0 0.171875 0 0 0.171875 
0 0 0.171875 0 0 0.171875 0 0 0.171875 
0 0 0.15625 0 0 0.15625 0 0 0.15625 
0 0 0.15625 0 0 0.15625 0 0 0.15625 
0 0 0.15625 0 0 0.15625 0 0 0.15625 
0 0 0.15625 0 0 0.15625 0 0 0.15625 
0 0 0.15625 0 0 0.15625 0 0 0.15625 
0 0 0.15625 0 0 0.15625 0 0 0.15625 
0 0 0.15625 0 0 0.15625 0 0 0.15625 
0 0 0.15625 0 0 0.15625 0 0 0.15625 
0 0 0.15625 0 0 0.15625 0 0 0.15625 
0 0 0.15625 0 0 0.15625 0 0 0.15625 
0 0 0.15625 0 0 0.15625 0 0 0.15625 
0 0 0.140625 0 0 0.140625 0 0 0.140625 
0 0 0.140625 0 0 0.140625 0 0 0.140625 
0 0 0.140625 0 0 0.140625 0 0 0.140625 
0 0 0.140625 0 0 0.140625 0 0 0.140625 
0 0 0.140625 0 0 0.140625 0 0 0.140625 
0 0 0.140625 0 0 0.140625 0 0 0.140625 
0 0 0.140625 0 0 0.140625 0 0 0.140625 
0 0 0.140625 0 0 0.140625 0 0 0.140625 
0 0 0.140625 0 0 0.140625 0 0 0.140625 
0 0 0.140625 0 0 0.140625 0 0 0.140625 
0 0 0.140625 0 0 0.140625 0 0 0.140625 
0 0 0.484375 0 0 0.5 0 0 0.484375 
0 0 0.5 0 0 0.484375 0 0 0.5 
0 0 0.484375 0 0 0.5 0 0 0.484375 
0 0 0.5 0 0 0.484375 0 0 0.5 
0 0 0.484375 0 0 0.5 0 0 0.484375 
0 0 0.5 0 0 0.484375 0 0 0.5 
0 0 0.484375 0 0 0.5 0 0 0.484375 
0 0 0.5 0 0 0.484375 0 0 0.5 
0 0 0.484375 0 0 0.5 0 0 0.484375 
0 0 0.5 0 0 0.484375 0 0 0.5 
0 0 0.484375 0 0 0.5 0 0 0.484375 
0 0 0.5 0 0 0.484375 0 0 0.5 
0 0 0.484375 0 0 0.5 0 0 0.484375 
0 0 0.5 0 0 0.484375 0 0 0.5 
0 0 0.484375 0 0 0.5 0 0 0.484375 
0 0 0.5 0 0 0.484375 0 0 0.5 
0 0 0.484375 0 0 0.5 0 0 0.484375 
0 0 0.5 0 0 0.484375 0 0 0.5 
0 0 0.484375 0 0 0.5 0 0 0.484375 
0 0 0.5 0 0 0.484375 0 0 0.5 
0 0 0.484375 0 0 0.5 0 0 0.484375 
0 0 0.5 0 0 0.484375 0 0 0.5 
0 0 0.46875 0 0 0.46875 0 0 0.46875 
0 0 0.46875 0 0 0.46875 0 0 0.46875 
0 0 0.46875 0 0 0.46875 0 0 0.46875 
0 0 0.46875 0 0 0.46875 0 0 0.46875 
0 0 0.46875 0 0 0.46875 0 0 0.46875 
0 0 0.46875 0 0 0.46875 0 0 0.46875 
0 0 0.46875 0 0 0.46875 0 0 0.46875 
0 0 0.46875 0 0 0.46875 0 0 0.46875 
0 0 0.46875 0 0 0.46875 0 0 0.46875 
0 0 0.46875 0 0 0.46875 0 0 0.46875 
0 0 0.46875 0 0 0.46875 0 0 0.46875 
0 0 0.453125 0 0 0.453125 0 0 0.453125 
0 0 0.453125 0 0 0.453125 0 0 0.453125 
0 0 0.453125 0 0 0.453125 0 0 0.453125 
0 0 0.453125 0 0 0.453125 0 0 0.453125 
0 0 0.453125 0 0 0.453125 0 0 0.453125 
0 0 0.453125 0 0 0.453125 0 0 0.453125 
0 0 0.453125 0 0 0.453125 0 0 0.453125 
0 0 0.453125 0 0 0.453125 0 0 0.453125 
0 0 0.453125 0 0 0.453125 0 0 0.453125 
0 0 0.453125 0 0 0.453125 0 0 0.453125 
0 0 0.453125 0 0 0.453125 0 0 0.453125 
0 0 0.4375 0 0 0.4375 0 0 0.4375 
0 0 0.4375 0 0 0.4375 0 0 0.4375 
0 0 0.4375 0 0 0.4375 0 0 0.4375 
0 0 0.4375 0 0 0.4375 0 0 0.4375 
0 0 0.4375 0 0 0.4375 0 0 0.4375 
0 0 0.4375 0 0 0.4375 0 0 0.4375 
0 0 0.4375 0 0 0.4375 0 0 0.4375 
0 0 0.4375 0 0 0.4375 0 0 0.4375 
0 0 0.4375 0 0 0.4375 0 0 0.4375 
0 0 0.4375 0 0 0.4375 0 0 0.4375 
0 0 0.4375 0 0 0.4375 0 0 0.4375 
0 0 0.421875 0 0 0.421875 0 0 0.421875 
0 0 0.421875 0 0 0.421875 0 0 0.421875 
0 0 0.421875 0 0 0.421875 0 0 0.421875 
0 0 0.421875 0 0 0.421875 0 0 0.421875 
0 0 0.421875 0 0 0.421875 0 0 0.421875 
0 0 0.421875 0 0 0.421875 0 0 0.421875 
0 0 0.421875 0 0 0.421875 0 0 0.421875 
0 0 0.421875 0 0 0.421875 0 0 0.421875 
0 0 0.421875 0 0 0.421875 0 0 0.421875 
0 0 0.421875 0 0 0.421875 0 0 0.421875 
0 0 0.421875 0 0 0.421875 0 0 0.421875 
0 0 0.40625 0 0 0.40625 0 0 0.40625 
0 0 0.40625 0 0 0.40625 0 0 0.40625 
0 0 0.40625 0 0 0.40625 0 0 0.40625 
0 0 0.40625 0 0 0.40625 0 0 0.40625 
0 0 0.40625 0 0 0.40625 0 0 0.40625 
0 0 0.40625 0 0 0.40625 0 0 0.40625 
0 0 0.40625 0 0 0.40625 0 0 0.40625 
0 0 0.40625 0 0 0.40625 0 0 0.40625 
0 0 0.40625 0 0 0.40625 0 0 0.40625 
0 0 0.40625 0 0 0.40625 0 0 0.40625 
0 0 0.40625 0 0 0.40625 0 0 0.40625 
0 0 0.390625 0 0 0.390625 0 0 0.390625 
0 0 0.390625 0 0 0.390625 0 0 0.390625 
0 0 0.390625 0 0 0.390625 0 0 0.390625 
0 0 0.390625 0 0 0.390625 0 0 0.390625 
0 0 0.390625 0 0 0.390625 0 0 0.390625 
0 0 0.390625 0 0 0.390625 0 0 0.390625 
0 0 0.390625 0 0 0.390625 0 0 0.390625 
0 0 0.390625 0 0 0.390625 0 0 0.390625 
0 0 0.390625 0 0 0.390625 0 0 0.390625 
[...]
CELL_DATA 4096
FIELD FieldData 1
q 1 4096 double
0 0 0 0 0 0 0 0 0 
0 0 0 0 0 0 0 0 0 
0 0 0 0 0 0 0 0 0 
0 0 0 0 0 0 0 0 0 
0 0 0 0 0 0 0 0 0 
0 0 0 0 0 0 0 0 0 
0 0 0 0 0 0 0 0 0 
0 0 0 0 0 0 0 0 0 
0 0 0 0 0 0 0 0 0 
0 0 0 0 0 0 0 0 0 
0 0 0 0 0 0 0 0 0 
0 0 0 0 0 0 0 0 0 
0 0 0 0 0 0 0 0 0 
0 0 0 0 0 0 0 0 0 
0 0 0 0 0 0 0 0 0 
0 0 0 0 0 0 0 0 0 
0 0 0 0 0 0 0 0 0 
0 0 0 0 0 0 0 0 0 
0 0 0 0 0 0 0 0 0 
0 0 0 0 0 0 0 0 0 
0 0 0 0 0 0 0 0 0 
0 0 0 0 0 0 0 0 0 
0 0 0 0 0 0 0 0 0 
0 0 0 0 0 0 0 0 0 
0 0 0 0 0 0 0 0 0 
0 0 0 0 0 0 0 0 0 
0 0 0 0 0 0 0 0 0 
0 0 0 0 0 0 0 0 0 
0 0 0 0 0 0 0 0 0 
0 0 0 0 0 0 0 0 0 
0 0 0 0 0 0 0 0 0 
0 0 0 0 0 0 0 0 0 
0 0 0 0 0 0 0 0 0 
0 0 0 0 0 0 0 0 0 
0 0 0 0 0 0 0 0 0 
0 0 0 0 0 0 0 0 0 
0 0 0 0 0 0 0 0 0 
0 0 0 0 0 0 0 0 0 
0 0 0 0 0 0 0 0 0 
0 0 0 0 0 0 0 0 0 
0 0 0 0 0 0 0 0 0 
0 0 0 0 0 0 0 0 0 
0 0 0 0 0 0 0 0 0 
0 0 0 0 0 0 0 0 0 
0 0 0 0 0 0 0 0 0 
0 0 0 0 0 0 0 0 0 
0 0 0 0 0 0 0 0 0 
0 0 0 0 0 0 0 0 0 
0 0 0 0 0 0 0 0 0 
0 0 0 0 0 0 0 0 0 
0 0 0 0 0 0 0 0 0 
0 0 0 0 0 0 0 0 0 
0 0 0 0 0 0 0 0 0 
0 0 0 0 0 0 0 0 0 
0 0 0 0 0 0 0 0 0 
0 0 0 0 0 0 0 0 0 
0 0 0 0 0 0 0 0 0 
0 0 0 0 0 0 0 0 0 
0 0 0 0 0 0 0 0 0 
0 0 0 0 0 0 0 0 0 
0 0 0 0 0 0 0 0 0 
0 0 0 0 0 0 0 0 0 
0 0 0 0 0 0 0 0 0 
0 0 0 0 0 0 0 0 0 
0 0 0 0 0 0 0 0 0 
0 0 0 0 0 0 0 0 0 
0 0 0 0 0 0 0 0 0 
0 0 0 0 0 0 0 0 0 
0 0 0 0 0 0 0 0 0 
0 0 0 0 0 0 0 0 0 
0 0 0 0 0 0 0 0 0 
0 0 0 0 0 0 0 0 0 
0 0 0 0 0 0 0 0 0 
0 0 0 0 0 0 0 0 0 
0 0 0 0 0 0 0 0 0 
0 0 0 0 0 0 0 0 0 
0 0 0 0 0 0 0 0 0 
0 0 0 0 0 0 0 0 0 
0 0 0 0 0 0 0 0 0 
0 0 0 0 0 0 0 0 0 
0 0 0 0 0 0 0 0 0 
0 0 0 0 0 0 0 0 0 
0 0 0 0 0 0 0 0 0 
0 0 0 0 0 0 0 0 0 
0 0 0 0 0 0 0 0 0 
0 0 0 0 0 0 0 0 0 
0 0 0 0 0 0 0 0 0 
0 0 0 0 0 0 0 0 0 
0 0 0 0 0 0 0 0 0 
0 0 0 0 0 0 0 0 0 
0 0 0 0 0 0 0 0 0 
0 0 0 0 0 0 0 0 0 
0 0 0 0 0 0 0 0 0 
0 0 0 0 0 0 0 0 0 
0 0 0 0 0 0 0 0 0 
0 0 0 0 0 0 0 0 0 
0 0 0 0 0 0 0 0 0 
0 0 0 0 0 0 0 0 0 
0 0 0 0 0 0 0 0 0 
0 0 0 0 0 0 0 0 0 
0 0 0 0 0 0 0 0 0 
0 0 0 0 0 0 0 0 0 
0 0 0 0 0 0 0 0 0 
0 0 0 0 0 0 0 0 0 
0 0 0 0 0 0 0 0 0 
0 0 0 0 0 0 0 0 0 
0 0 0 0 0 0 0 0 0 
0 0 0 0 0 0 0 0 0 
0 0 0 0 0 0 0 0 0 
0 0 0 0 0 0 0 0 0 
0 0 0 0 0 0 0 0 0 
0 0 0 0 0 0 0 0 0 
0 0 0 0 0 0 0 0 0 
0 0 0 0 0 0 0 0 0 
0 0 0 0 0 0 0 0 0 
0 0 0 0 0 0 0 0 0 
0 0 0 0 0 0 0 0 0 
0 0 0 0 0 0 0 0 0 
0 0 0 0 0 0 0 0 0 
0 0 0 0 0 0 0 0 0 
0 0 0 0 0 0 0 0 0 
0 0 0 0 0 0 0 0 0 
0 0 0 0 0 0 0 0 0 
0 0 0 0 0 0 0 0 0 
0 0 0 0 0 0 0 0 0 
0 0 0 0 0 0 0 0 0 
0 0 0 0 0 0 0 0 0 
0 0 0 0 0 0 0 0 0 
0 0 0 0 0 0 0 0 0 
0 0 0 0 0 0 0 0 0 
0 0 0 0 0 0 0 0 0 
0 0 0 0 0 0 0 0 0 
0 0 0 0 0 0 0 0 0 
0 0 0 0 0 0 0 0 0 
0 0 0 0 0 0 0 0 0 
0 0 0 0 0 0 0 0 0 
0 0 0 0 0 0 0 0 0 
0 0 0 0 0 0 0 0 0 
0 0 0 0 0 0 0 0 0 
0 0 0 0 0 0 0 0 0 
0 0 0 0 0 0 0 0 0 
0 0 0 0 0 0 0 0 0 
0 0 0 0 0 0 0 0 0 
0 0 0 0 0 0 0 0 0 
0 0 0 0 0 0 0 0 0 
0 0 0 0 0 0 0 0 0 
0 0 0 0 0 0 0 0 0 
0 0 0 0 0 0 0 0 0 
0 0 0 0 0 0 0 0 0 
0 0 0 0 0 0 0 0 0 
0 0 0 0 0 0 0 0 0 
0 0 0 0 0 0 0 0 0 
0 0 0 0 0 0 0 0 0 
0 0 0 0 0 0 0 0 0 
0 0 0 0 0 0 0 0 0 
0 0 0 0 0 0 0 0 0 
0 0 0 0 0 0 0 0 0 
0 0 0 0 0 0 0 0 0 
0 0 0 0 0 0 0 0 0 
0 0 0 0 0 0 0 0 0 
0 0 0 0 0 0 0 0 0 
0 0 0 0 0 0 0 0 0 
0 0 0 0 0 0 0 0 0 
0 0 0 0 0 0 0 0 0 
0 0 0 0 0 0 0 0 0 
0 0 0 0 0 0 0 0 0 
0 0 0 0 0 0 0 0 0 
0 0 0 0 0 0 0 0 0 
0 0 0 0 0 0 0 0 0 
0 0 0 0 0 0 0 0 0 
0 0 0 0 0 0 0 0 0 
0 0 0 0 0 0 0 0 0 
0 0 0 0 0 0 0 0 0 
0 0 0 0 0 0 0 0 0 
0 0 0 0 0 0 0 0 0 
0 0 0 0 0 0 0 0 0 
0 0 0 0 0 0 0 0 0 
0 0 0 0 0 0 0 0 0 
0 0 0 0 0 0 0 0 0 
0 0 0 0 0 0 0 0 0 
0 0 0 0 0 0 0 0 0 
0 0 0 0 0 0 0 0 0 
0 0 0 0 0 0 0 0 0 
0 0 0 0 0 0 0 0 0 
0 0 0 0 0 0 0 0 0 
0 0 0 0 0 0 0 0 0 
0 0 0 0 0 0 0 0 0 
0 0 0 0 0 0 0 0 0 
0 0 0 0 0 0 0 0 0 
0 0 0 0 0 0 0 0 0 
0 0 0 0 0 0 0 0 0 
0 0 0 0 0 0 0 0 0 
0 0 0 0 0 0 0 0 0 
0 0 0 0 0 0 0 0 0 
0 0 0 0 0 0 0 0 0 
0 0 0 0 0 0 0 0 0 
0 0 0 0 0 0 0 0 0 
0 0 0 0 0 0 0 0 0 
0 0 0 0 0 0 0 0 0 
0 0 0 0 0 0 0 0 0 
0 0 0 0 0 0 0 0 0 
0 0 0 0 0 0 0 0 0 
0 0 0 0 0 0 0 0 0 
0 0 0 0 0 0 0 0 0 
0 0 0 0 0 0 0 0 0 
0 0 0 0 0 0 0 0 0 
0 0 0 0 0 0 0 0 0 
0 0 0 0 0 0 0 0 0 
0 0 0 0 0 0 0 0 0 
0 0 0 0 0 0 0 0 0 
0 0 0 0 0 0 0 0 0 
0 0 0 0 0 0 0 0 0 
0 0 0 0 0 0 0 0 0 
0 0 0 0 0 0 0 0 0 
0 0 0 0 0 0 0 0 0 
0 0 0 0 0 0 0 0 0 
0 0 0 0 0 0 0 0 0 
0 0 0 0 0 0 0 0 0 
0 0 0 0 0 0 0 0 0 
0 0 0 0 0 0 0 0 0 
0 0 0 0 0 0 0 0 0 
0 0 0 0 0 0 0 0 0 
0 0 0 0 0 0 0 0 0 
0 0 0 0 0 0 0 0 0 
0 0 0 0 0 0 0 0 0 
0 0 0 0 0 0 0 0 0 
0 0 0 0 0 0 0 0 0 
0 0 0 0 0 0.0003323490504 0.00049727728085 0.00066920407262 0.00099060571049 
0.0013299124368 0.0019112003167 0.0024747791966 0.0033905556465 0.0040928068884 0.0052497431654 0.0056816049105 0.0066667986756 0.0060526503031 
0.0061600582521 0.0036697050297 0.0022162732592 -0.0024773758803 -0.0057432502005 -0.012113565522 -0.016853475432 -0.023660638963 -0.029126360266 
-0.034857537729 -0.040195724338 -0.043462238567 -0.047929522928 -0.047724189973 -0.050789639873 -0.046726288412 -0.048148300425 -0.040729036079 
-0.040637118497 -0.031328553284 -0.030219082293 -0.021030141623 -0.01957614199 -0.012204069263 -0.010951616607 -0.0060900483923 -0.0052680822734 
-0.0026090302245 -0.0021745766085 -0.00095459027773 -0.00076158487718 -0.0002870444586 -0.00021093968607 -5.5229713959e-05 -2.5899105698e-05 1.3902971488e-05 
2.7174772916e-05 3.0935853255e-05 3.9663636395e-05 3.4588453561e-05 4.3021751442e-05 3.7485819397e-05 4.7869482812e-05 4.4711899144e-05 5.9611697264e-05 
6.1179467643e-05 8.5310205305e-05 9.641119171e-05 0.00013961665729 0.00017154142713 0.00025464185375 0.00055643702458 0.0008166546202 0.0010818193893 
0.0015683113033 0.0020670808657 0.0029060658438 0.0036883184255 0.0049406924864 0.0058423972764 0.0073271129097 0.0077724612889 0.0089221536841 
0.0079524494338 0.0079263895464 0.0046481285496 0.0027535217274 -0.0030406449473 -0.006928177832 -0.014498840723 -0.019872860216 -0.027819879286 
-0.033826755527 -0.040585427626 -0.046355825996 -0.050532508033 -0.055353135769 -0.055878789701 -0.059233801878 -0.055547752053 -0.057162070383 
-0.049533580253 -0.049472335582 -0.039240979468 -0.037965921651 -0.027281427309 -0.025512213593 -0.016466121685 -0.014860433257 -0.0085693892097 
-0.0074591283944 -0.0038329252976 -0.003214640161 -0.0014633578639 -0.0011741360799 -0.00045815761582 -0.00033823627554 -9.144224858e-05 -4.3010258024e-05 
2.3754992759e-05 4.6479036285e-05 5.420282087e-05 6.9402338456e-05 6.1691232808e-05 7.6430454181e-05 6.75172375e-05 8.5641990313e-05 8.0646482698e-05 
0.00010649883226 0.00010957673219 0.00015092423853 0.00017007611403 0.00024264018499 0.00029579750562 0.00043156156559 0.0014496077315 0.0020469600009 
0.0026274741646 0.0036533096614 0.0046410647553 0.006244465275 0.0076138380233 0.0097501891414 0.011064252291 0.013265201779 0.013518389785 
0.014851343403 0.012758596571 0.012196856674 0.0069304813526 0.0039501194842 -0.0042570097533 -0.0093698562712 -0.019303993981 -0.025679910797 
-0.035744078756 -0.042403325935 -0.051133825924 -0.057298674539 -0.063486253741 -0.06861385116 -0.071195929367 -0.074877249079 -0.072957209815 
-0.074877829998 -0.068089824877 -0.06814480497 -0.057217668705 -0.055694283467 -0.042668580146 -0.040269991325 -0.027858386295 -0.025428999503 
-0.015768828865 -0.013897941288 -0.0076881910498 -0.0065288846583 -0.0031960160061 -0.0025936418174 -0.00108477013 -0.00080823058658 -0.00023296271813 
-0.00011023967643 6.4452648032e-05 0.00012636616884 0.00015464389914 0.00019748248228 0.00018238930933 0.00022418908763 0.00020356415137 0.00025476168144 
0.00024383799626 0.00031590964477 0.00032668934413 0.00043900182731 0.00049188818722 0.00068109083389 0.00081740409037 0.0011520200229 0.00090914824449 
0.0013088061775 0.0017066641034 0.0024230413484 0.0031353714091 0.0043122288299 0.0053643544616 0.007025898614 0.0081387559149 0.0099798684938 
0.010376316554 0.011652501467 0.010196552439 0.0099532087482 0.0057454256803 0.0033384956633 -0.0036419721834 -0.0081560038883 -0.016935252355 
-0.022868010902 -0.031921340524 -0.038338187735 -0.046114834436 -0.052170607777 -0.057335911807 -0.062384752834 -0.063848768275 -0.06741572211 
-0.064441968557 -0.066226537016 -0.058788504806 -0.05877586505 -0.047966324942 -0.046548289893 -0.034537355906 -0.032446382636 -0.021680789091 
-0.019678039079 -0.01176728035 -0.010306725842 -0.0054951393151 -0.0046375342226 -0.0021891785895 -0.0017665082213 -0.00071363765979 -0.00052927231657 
-0.00014774680809 -6.9703796839e-05 3.9609492682e-05 7.7579220758e-05 9.2678455266e-05 0.00011850939664 0.00010737739415 0.00013250793966 0.0001186750513 
0.00014952433358 0.00014195309052 0.00018567580344 0.00019152616079 0.00026056381663 0.00029279004404 0.00041151467608 0.00049775668718 0.00071376104217 
0.0073398086705 0.0095943710576 0.011563016085 0.014789728432 0.017454332257 0.021509987252 0.024205796196 0.028328838108 0.029603927275 
0.032437031457 0.030508653954 0.030698920906 0.024500343397 0.021545581781 0.011494741936 0.0060648347277 -0.006225121067 -0.012785744529 
-0.02552937902 -0.031990797401 -0.044021732563 -0.049710068948 -0.060554985142 -0.065311606706 -0.074758862164 -0.078653167881 -0.086225713564 
-0.089263870298 -0.093893809804 -0.095853756443 -0.095987018234 -0.096458103675 -0.090756154743 -0.089414768597 -0.077867402302 -0.074853758583 
-0.059490896831 -0.055550780529 -0.039834912868 -0.03599486433 -0.023076879327 -0.020091739796 -0.011373418869 -0.0094418787785 -0.0045367894293 
-0.0034429504064 -0.0011280562844 -0.00054030001823 0.00035397922883 0.0006968567572 0.00093911739373 0.0011928966341 0.0011893687587 0.0014390497768 
0.0013805109521 0.0016818765093 0.0016630242009 0.0020737874999 0.0021663743556 0.0027710622733 0.0030695719591 0.004003639252 0.0046567904283 
0.0061243478689 0.0050755196964 0.0067638514506 0.0082811814353 0.010815487755 0.013001281903 0.016377901974 0.018803763338 0.022507599098 
0.024010259449 0.026906897886 0.025819799488 0.026557556032 0.021589082893 0.019385856258 0.010506779255 0.0056515962057 -0.0058720717265 
-0.01227106024 -0.024694277298 -0.031410258871 -0.043346667488 -0.049555012908 -0.060213495225 -0.065566689846 -0.074442555973 -0.078848684564 
-0.085260078393 -0.088613235449 -0.09144271539 -0.093475867506 -0.091376447324 -0.091731092708 -0.083886861038 -0.082397481366 -0.069494134708 
-0.066498206473 -0.051048291902 -0.047397374071 -0.032775709567 -0.02943217539 -0.018186251385 -0.015735380416 -0.0085896377909 -0.0070904802902 
-0.0032907905025 -0.0024859147696 -0.00078881293237 -0.00037667349181 0.00023985449637 0.00047170413176 0.00062055095745 0.00078929362156 0.00077204315814 
0.00093780991214 0.00088737983602 0.0010883872466 0.0010674649184 0.0013439040091 0.0014003552075 0.0018134502061 0.0020145558009 0.0026671460736 
0.003126644904 0.0041837356341 0.0034251011623 0.0046533821404 0.0057877608438 0.0077184328067 0.0094507487756 0.012169521132 0.014255002182 
0.017451255894 0.019003845223 0.021781273407 0.021324545863 0.02242075383 0.018564930323 0.017021932274 0.0093721039668 0.005139494276 
-0.0054054519214 -0.011493049073 -0.02331038774 -0.030096436249 -0.041652531832 -0.048208978472 -0.058429864681 -0.064235226087 -0.072339745563 
-0.077138251937 -0.082271945174 -0.085845707056 -0.086907723519 -0.088958403209 -0.084889337506 -0.085131742261 -0.075667416838 -0.074099576211 
-0.0605254078 -0.057650537315 -0.042747332705 -0.039465308738 -0.026317064264 -0.023485580112 -0.013986414933 -0.012026356011 -0.0063307589124 
-0.0051962494946 -0.0023294261979 -0.0017516156212 -0.00053828760845 -0.00025626673826 0.00015860433638 0.00031159677381 0.00040015857063 0.00050964935696 
0.00048906179548 0.00059641825571 0.00055664250135 0.0006873372658 0.000668660641 0.00084990298397 0.00088336466399 0.001158142748 0.0012902619534 
0.0017339468148 0.0020486489025 0.0027891105249 0.0022556068053 0.0031242119111 0.0039475347536 0.005375381012 0.0067041445501 0.0088244128495 
0.010545979119 0.013204480209 0.014678552271 0.017206795999 0.017187148293 0.018471808674 0.015579358128 0.014585785942 0.008158338012 
0.004561070193 -0.0048559004343 -0.010504745651 -0.021473348961 -0.028142050524 -0.039059277257 -0.045768362224 -0.055331574797 -0.061413007029 
-0.068600895519 -0.07364482607 -0.077473809405 -0.08115881131 -0.080605512117 -0.082617407069 -0.076960720884 -0.077101634261 -0.066607169692 
-0.065030129501 -0.051442776924 -0.048774619944 -0.034932843246 -0.032068144753 -0.020621482633 -0.018288468081 -0.010497037142 -0.0089699076631 
-0.0045533790672 -0.0037162202354 -0.0016091435288 -0.0012044492126 -0.00035846920271 -0.00017014395818 0.00010234799928 0.00020086919169 0.00025181633773 
0.00032114522968 0.00030233122562 0.00037015544753 0.00034075346233 0.00042359755538 0.00040874741292 0.00052452665884 0.00054379967313 0.00072179797003 
0.00080644283636 0.0011000738731 0.0013099466764 0.0018145307079 0.058292727749 0.06529681125 0.06937414353 0.075087696579 0.076477840183 
0.079066243082 0.075790016976 0.074083477575 0.065654575797 0.060083709682 0.048137149076 0.040634882029 0.027987999539 0.020827636516 
0.0097956223155 0.0044289176009 -0.0041237779282 -0.0073751925547 -0.013832082173 -0.015379751865 -0.020684943101 -0.021163836916 -0.026308390678 
-0.026287125945 -0.032113659717 -0.032017411625 -0.039179710097 -0.039299636392 -0.048176539853 -0.048661116143 -0.05909275285 -0.059870351381 
-0.070734143187 -0.071394981107 -0.080336300994 -0.080119626943 -0.084042853522 -0.082124569089 -0.07875060318 -0.074796595674 -0.064408629369 
-0.058943483239 -0.044618643697 -0.038762913821 -0.024582813428 -0.019354541673 -0.0081937104397 -0.0040205941912 0.0033075998254 0.0065649294494 
0.010728900667 0.013483804235 0.015667942765 0.018367906683 0.019668811814 0.02270781019 0.023963712476 0.027683955392 0.029511530582 
0.034203248453 0.037030691721 0.042856420854 0.046821747826 0.053619239791 0.0490041993 0.055961927501 0.060400696356 0.066754082838 
0.069253494362 0.073186732612 0.071574866974 0.071555811271 0.06473448018 0.06059020314 0.049526008169 0.04273533776 0.029981752963 
0.022781897493 0.010884927865 0.0050173326507 -0.0047289199291 -0.0086050335932 -0.016265475763 -0.018357727542 -0.024760878827 -0.025648429368 
-0.031802507162 -0.032081830343 -0.038875101466 -0.039020029519 -0.047097004941 -0.047427971913 -0.057038868085 -0.057689340508 -0.068387878459 
-0.069217003683 -0.079482239461 -0.079982597471 -0.087162050254 -0.086528341446 -0.087670731387 -0.08518445726 -0.078770800854 -0.074350996655 
-0.061706840348 -0.05612012626 -0.040965977531 -0.035388062892 -0.021677357447 -0.016988752917 -0.0069654151476 -0.0034075595773 0.0027246215471 
0.0054023083502 0.0086185842443 0.010846043941 0.012364033394 0.014551970563 0.015369897304 0.017864371261 0.018699598547 0.021809980582 
0.023191005555 0.02721133479 0.029545166929 0.034708104983 0.038217531287 0.044529536671 0.04020215412 0.046804807484 0.051319611979 
0.057914057382 0.061199077582 0.066110542578 0.065963881389 0.067447454954 0.06228786393 0.059627305643 0.049725984662 0.04386037956 
0.031342908308 0.024318506772 0.011803646268 0.0055468356567 -0.0052920721752 -0.0097978070835 -0.018665648739 -0.021383836177 -0.028925101159 
-0.030333620694 -0.037516778835 -0.03820958116 -0.045925128202 -0.046407275792 -0.055248751537 -0.055857009841 -0.065902713938 -0.066743071618 
-0.077236244303 -0.078092781352 -0.087158189529 -0.087442070443 -0.092286919744 -0.091195823132 -0.089249455865 -0.0862272876 -0.076890686836 
-0.072125504628 -0.057692541155 -0.052143309196 -0.036705182495 -0.031527843972 -0.018654267497 -0.014552486868 -0.0057784386569 -0.0028183425791 
0.0021902642809 0.0043383619468 0.0067563749825 0.0085138773203 0.0095215021479 0.011250739214 0.011720898732 0.013715047735 0.014239920779 
0.016767932785 0.017784617659 0.021126591916 0.02300425531 0.027431086776 0.030442109611 0.036088830439 0.032185662891 0.03820193571 
0.042552187396 0.049032863683 0.05277705691 0.058278208332 0.059326532019 0.062041648796 0.058488208315 0.057264446826 0.048722612357 
0.04392934602 0.031975597631 0.025332673331 0.01249119316 0.0059843200043 -0.0057794520392 -0.010886851658 -0.020903379924 -0.024308011024 
-0.032974697904 -0.035009413535 -0.04319036104 -0.044410179016 -0.052945167483 -0.053861899354 -0.063248285146 -0.06419747099 -0.074307527028 
-0.075355318971 -0.085125616726 -0.085981713138 -0.093270308461 -0.09329158419 -0.09535642743 -0.093796929837 -0.088665288542 -0.085177756428 
-0.073245226626 -0.068279139991 -0.052638455175 -0.047279801772 -0.032094348216 -0.02741125136 -0.015665604888 -0.012164941911 -0.0046781173928 
-0.0022747894926 0.0017182405416 0.0033999247312 0.005168787367 0.0065219959343 0.0071556300206 0.008488626325 0.0087226404088 0.010275524962 
0.010582297599 0.012580586186 0.013309648721 0.016006860083 0.017479419972 0.021156909726 0.023663771784 0.028542666723 0.025146219355 
0.030428278522 0.034431625271 0.040512368257 0.044416319419 0.050134740247 0.052070150071 0.055692690943 0.053595744136 0.053668821828 
0.046588083723 0.042937247215 0.031834289086 0.025752669164 0.012899972062 0.0063005930009 -0.0061594889003 -0.011805185998 -0.022844783505 
-0.026965615523 -0.036684607082 -0.039431429967 -0.048522730659 -0.050372079237 -0.059566129724 -0.061006254244 -0.070659758476 -0.072003774583 
-0.081763490629 -0.083026884678 -0.091558043251 -0.092384349318 -0.097403762501 -0.097131838921 -0.096151685116 -0.094145465319 -0.085960472462 
-0.08211164933 -0.068089794152 -0.063078931376 -0.046868786505 -0.041835967013 -0.027385888794 -0.023257367693 -0.012838469235 -0.0099238449492 
-0.0036959733559 -0.0017917844058 0.0013154323271 0.0026002190182 0.0038588748633 0.0048756302948 0.0052479222542 0.0062501563483 0.0063347886767 
0.0075129036827 0.0076744891373 0.0092112662899 0.0097204363577 0.011835318818 0.012961132869 0.015924234315 0.01795106827 0.022029943975 
0.01917255748 0.023651925574 0.027188814002 0.032665184283 0.036478508619 0.04208898514 0.044599070138 0.048787681668 0.047928010305 
0.049085832441 0.043472662157 0.040955361588 0.030929204397 0.025548216148 0.013000819318 0.0064735894208 -0.0064061897341 -0.012492244339 
-0.024364341984 -0.029192303047 -0.039827589807 -0.043340840124 -0.053198665652 -0.055756350468 -0.06539876496 -0.067431708587 -0.077035809348 
-0.078811522049 -0.087797701659 -0.089273113238 -0.096101427999 -0.09686967041 -0.099267060215 -0.098691070868 -0.094615205186 -0.092216215851 
-0.081328181825 -0.077246793687 -0.061770600417 -0.056869278666 -0.040725027909 -0.036126100363 -0.022804587852 -0.019257032496 -0.010267777004 
-0.0079003623079 -0.0028495983791 -0.0013772963574 0.00098276609827 0.0019406520067 0.0028114465516 0.0035569529242 0.0037559864339 0.0044909834447 
0.004489659468 0.0053605423445 0.0054314537783 0.0065816518431 0.0069279067965 0.0085398625632 0.0093789887669 0.011696663423 0.013289043906 
0.016593169373 0.014265418096 0.017941251409 0.020951740753 0.025702756443 0.029236722692 0.03448222222 0.037278625071 0.041707990675 
0.041825929602 0.043811423771 0.039587195181 0.038122769127 0.02932509643 0.024734094876 0.012786444057 0.0064909159221 -0.0065020757496 
-0.012900460507 -0.025358259052 -0.030840647463 -0.042196971906 -0.04648889585 -0.056918487733 -0.060227648634 -0.070070758412 -0.072736278182 
-0.08196156797 -0.084182394273 -0.092003421351 -0.093674142285 -0.098437434597 -0.099122979356 -0.098726034971 -0.097856847171 -0.090857771083 
-0.0881479658 -0.075089712265 -0.070917473621 -0.054686324056 -0.050034345068 -0.034533148753 -0.030443141321 -0.018531677015 -0.015560203587 
-0.0080137671404 -0.0061377776843 -0.002144053341 -0.0010331565957 0.00071652101083 0.0014134566983 0.0019989230461 0.0025323432669 0.0026233591092 
0.0031491194493 0.0031052157431 0.0037325595754 0.003751282817 0.0045893119623 0.0048185394491 0.0060133835994 0.0066231741729 0.0083842174625 
0.0096005094924 0.012196701838 0.010358242357 0.0132811618 0.015756039723 0.019736557152 0.02286743272 0.027568881457 0.030408225383 