# vtk DataFile Version 4.2
vtk output
ASCII
DATASET UNSTRUCTURED_GRID
POINTS 3965 float
0.1 0 0.5 0.1 0 0.492188 0.0994522 0.0104528 0.5 
0.0994522 0.0104528 0.492188 0.0978148 0.0207912 0.5 0.0978148 0.0207912 0.492188 
0.0951057 0.0309017 0.5 0.0951057 0.0309017 0.492188 0.0913545 0.0406737 0.5 
0.0913545 0.0406737 0.492188 0.0866025 0.05 0.5 0.0866025 0.05 0.492188 
0.0809017 0.0587785 0.5 0.0809017 0.0587785 0.492188 0.0743145 0.0669131 0.5 
0.0743145 0.0669131 0.492188 0.0669131 0.0743145 0.5 0.0669131 0.0743145 0.492188 
0.0587785 0.0809017 0.5 0.0587785 0.0809017 0.492188 0.05 0.0866025 0.5 
0.05 0.0866025 0.492188 0.0406737 0.0913545 0.5 0.0406737 0.0913545 0.492188 
0.0309017 0.0951057 0.5 0.0309017 0.0951057 0.492188 0.0207912 0.0978148 0.5 
0.0207912 0.0978148 0.492188 0.0104528 0.0994522 0.5 0.0104528 0.0994522 0.492188 
6.12323e-18 0.1 0.5 6.12323e-18 0.1 0.492188 -0.0104528 0.0994522 0.5 
-0.0104528 0.0994522 0.492188 -0.0207912 0.0978148 0.5 -0.0207912 0.0978148 0.492188 
-0.0309017 0.0951057 0.5 -0.0309017 0.0951057 0.492188 -0.0406737 0.0913545 0.5 
-0.0406737 0.0913545 0.492188 -0.05 0.0866025 0.5 -0.05 0.0866025 0.492188 
-0.0587785 0.0809017 0.5 -0.0587785 0.0809017 0.492188 -0.0669131 0.0743145 0.5 
-0.0669131 0.0743145 0.492188 -0.0743145 0.0669131 0.5 -0.0743145 0.0669131 0.492188 
-0.0809017 0.0587785 0.5 -0.0809017 0.0587785 0.492188 -0.0866025 0.05 0.5 
-0.0866025 0.05 0.492188 -0.0913545 0.0406737 0.5 -0.0913545 0.0406737 0.492188 
-0.0951057 0.0309017 0.5 -0.0951057 0.0309017 0.492188 -0.0978148 0.0207912 0.5 
-0.0978148 0.0207912 0.492188 -0.0994522 0.0104528 0.5 -0.0994522 0.0104528 0.492188 
-0.1 1.22465e-17 0.5 -0.1 1.22465e-17 0.492188 -0.0994522 -0.0104528 0.5 
-0.0994522 -0.0104528 0.492188 -0.0978148 -0.0207912 0.5 -0.0978148 -0.0207912 0.492188 
-0.0951057 -0.0309017 0.5 -0.0951057 -0.0309017 0.492188 -0.0913545 -0.0406737 0.5 
-0.0913545 -0.0406737 0.492188 -0.0866025 -0.05 0.5 -0.0866025 -0.05 0.492188 
-0.0809017 -0.0587785 0.5 -0.0809017 -0.0587785 0.492188 -0.0743145 -0.0669131 0.5 
-0.0743145 -0.0669131 0.492188 -0.0669131 -0.0743145 0.5 -0.0669131 -0.0743145 0.492188 
-0.0587785 -0.0809017 0.5 -0.0587785 -0.0809017 0.492188 -0.05 -0.0866025 0.5 
-0.05 -0.0866025 0.492188 -0.0406737 -0.0913545 0.5 -0.0406737 -0.0913545 0.492188 
-0.0309017 -0.0951057 0.5 -0.0309017 -0.0951057 0.492188 -0.0207912 -0.0978148 0.5 
-0.0207912 -0.0978148 0.492188 -0.0104528 -0.0994522 0.5 -0.0104528 -0.0994522 0.492188 
-1.83697e-17 -0.1 0.5 -1.83697e-17 -0.1 0.492188 0.0104528 -0.0994522 0.5 
0.0104528 -0.0994522 0.492188 0.0207912 -0.0978148 0.5 0.0207912 -0.0978148 0.492188 
0.0309017 -0.0951057 0.5 0.0309017 -0.0951057 0.492188 0.0406737 -0.0913545 0.5 
0.0406737 -0.0913545 0.492188 0.05 -0.0866025 0.5 0.05 -0.0866025 0.492188 
0.0587785 -0.0809017 0.5 0.0587785 -0.0809017 0.492188 0.0669131 -0.0743145 0.5 
0.0669131 -0.0743145 0.492188 0.0743145 -0.0669131 0.5 0.0743145 -0.0669131 0.492188 
0.0809017 -0.0587785 0.5 0.0809017 -0.0587785 0.492188 0.0866025 -0.05 0.5 
0.0866025 -0.05 0.492188 0.0913545 -0.0406737 0.5 0.0913545 -0.0406737 0.492188 
0.0951057 -0.0309017 0.5 0.0951057 -0.0309017 0.492188 0.0978148 -0.0207912 0.5 
0.0978148 -0.0207912 0.492188 0.0994522 -0.0104528 0.5 0.0994522 -0.0104528 0.492188 
0.1 -2.44929e-17 0.5 0.1 -2.44929e-17 0.492188 0.1 0 0.484375 
0.0994522 0.0104528 0.484375 0.0978148 0.0207912 0.484375 0.0951057 0.0309017 0.484375 
0.0913545 0.0406737 0.484375 0.0866025 0.05 0.484375 0.0809017 0.0587785 0.484375 
0.0743145 0.0669131 0.484375 0.0669131 0.0743145 0.484375 0.0587785 0.0809017 0.484375 
0.05 0.0866025 0.484375 0.0406737 0.0913545 0.484375 0.0309017 0.0951057 0.484375 
0.0207912 0.0978148 0.484375 0.0104528 0.0994522 0.484375 6.12323e-18 0.1 0.484375 
-0.0104528 0.0994522 0.484375 -0.0207912 0.0978148 0.484375 -0.0309017 0.0951057 0.484375 
-0.0406737 0.0913545 0.484375 -0.05 0.0866025 0.484375 -0.0587785 0.0809017 0.484375 
-0.0669131 0.0743145 0.484375 -0.0743145 0.0669131 0.484375 -0.0809017 0.0587785 0.484375 
-0.0866025 0.05 0.484375 -0.0913545 0.0406737 0.484375 -0.0951057 0.0309017 0.484375 
-0.0978148 0.0207912 0.484375 -0.0994522 0.0104528 0.484375 -0.1 1.22465e-17 0.484375 
-0.0994522 -0.0104528 0.484375 -0.0978148 -0.0207912 0.484375 -0.0951057 -0.0309017 0.484375 
-0.0913545 -0.0406737 0.484375 -0.0866025 -0.05 0.484375 -0.0809017 -0.0587785 0.484375 
-0.0743145 -0.0669131 0.484375 -0.0669131 -0.0743145 0.484375 -0.0587785 -0.0809017 0.484375 
-0.05 -0.0866025 0.484375 -0.0406737 -0.0913545 0.484375 -0.0309017 -0.0951057 0.484375 
-0.0207912 -0.0978148 0.484375 -0.0104528 -0.0994522 0.484375 -1.83697e-17 -0.1 0.484375 
0.0104528 -0.0994522 0.484375 0.0207912 -0.0978148 0.484375 0.0309017 -0.0951057 0.484375 
0.0406737 -0.0913545 0.484375 0.05 -0.0866025 0.484375 0.0587785 -0.0809017 0.484375 
0.0669131 -0.0743145 0.484375 0.0743145 -0.0669131 0.484375 0.0809017 -0.0587785 0.484375 
0.0866025 -0.05 0.484375 0.0913545 -0.0406737 0.484375 0.0951057 -0.0309017 0.484375 
0.0978148 -0.0207912 0.484375 0.0994522 -0.0104528 0.484375 0.1 -2.44929e-17 0.484375 
0.1 0 0.476562 0.1 0 0.46875 0.0994522 0.0104528 0.476562 
0.0994522 0.0104528 0.46875 0.0978148 0.0207912 0.476562 0.0978148 0.0207912 0.46875 
0.0951057 0.0309017 0.476562 0.0951057 0.0309017 0.46875 0.0913545 0.0406737 0.476562 
0.0913545 0.0406737 0.46875 0.0866025 0.05 0.476562 0.0866025 0.05 0.46875 
0.0809017 0.0587785 0.476562 0.0809017 0.0587785 0.46875 0.0743145 0.0669131 0.476562 
0.0743145 0.0669131 0.46875 0.0669131 0.0743145 0.476562 0.0669131 0.0743145 0.46875 
0.0587785 0.0809017 0.476562 0.0587785 0.0809017 0.46875 0.05 0.0866025 0.476562 
0.05 0.0866025 0.46875 0.0406737 0.0913545 0.476562 0.0406737 0.0913545 0.46875 
0.0309017 0.0951057 0.476562 0.0309017 0.0951057 0.46875 0.0207912 0.0978148 0.476562 
0.0207912 0.0978148 0.46875 0.0104528 0.0994522 0.476562 0.0104528 0.0994522 0.46875 
6.12323e-18 0.1 0.476562 6.12323e-18 0.1 0.46875 -0.0104528 0.0994522 0.476562 
-0.0104528 0.0994522 0.46875 -0.0207912 0.0978148 0.476562 -0.0207912 0.0978148 0.46875 
-0.0309017 0.0951057 0.476562 -0.0309017 0.0951057 0.46875 -0.0406737 0.0913545 0.476562 
-0.0406737 0.0913545 0.46875 -0.05 0.0866025 0.476562 -0.05 0.0866025 0.46875 
-0.0587785 0.0809017 0.476562 -0.0587785 0.0809017 0.46875 -0.0669131 0.0743145 0.476562 
-0.0669131 0.0743145 0.46875 -0.0743145 0.0669131 0.476562 -0.0743145 0.0669131 0.46875 
-0.0809017 0.0587785 0.476562 -0.0809017 0.0587785 0.46875 -0.0866025 0.05 0.476562 
-0.0866025 0.05 0.46875 -0.0913545 0.0406737 0.476562 -0.0913545 0.0406737 0.46875 
-0.0951057 0.0309017 0.476562 -0.0951057 0.0309017 0.46875 -0.0978148 0.0207912 0.476562 
-0.0978148 0.0207912 0.46875 -0.0994522 0.0104528 0.476562 -0.0994522 0.0104528 0.46875 
-0.1 1.22465e-17 0.476562 -0.1 1.22465e-17 0.46875 -0.0994522 -0.0104528 0.476562 
-0.0994522 -0.0104528 0.46875 -0.0978148 -0.0207912 0.476562 -0.0978148 -0.0207912 0.46875 
-0.0951057 -0.0309017 0.476562 -0.0951057 -0.0309017 0.46875 -0.0913545 -0.0406737 0.476562 
-0.0913545 -0.0406737 0.46875 -0.0866025 -0.05 0.476562 -0.0866025 -0.05 0.46875 
-0.0809017 -0.0587785 0.476562 -0.0809017 -0.0587785 0.46875 -0.0743145 -0.0669131 0.476562 
-0.0743145 -0.0669131 0.46875 -0.0669131 -0.0743145 0.476562 -0.0669131 -0.0743145 0.46875 
-0.0587785 -0.0809017 0.476562 -0.0587785 -0.0809017 0.46875 -0.05 -0.0866025 0.476562 
-0.05 -0.0866025 0.46875 -0.0406737 -0.0913545 0.476562 -0.0406737 -0.0913545 0.46875 
-0.0309017 -0.0951057 0.476562 -0.0309017 -0.0951057 0.46875 -0.0207912 -0.0978148 0.476562 
-0.0207912 -0.0978148 0.46875 -0.0104528 -0.0994522 0.476562 -0.0104528 -0.0994522 0.46875 
-1.83697e-17 -0.1 0.476562 -1.83697e-17 -0.1 0.46875 0.0104528 -0.0994522 0.476562 
0.0104528 -0.0994522 0.46875 0.0207912 -0.0978148 0.476562 0.0207912 -0.0978148 0.46875 
0.0309017 -0.0951057 0.476562 0.0309017 -0.0951057 0.46875 0.0406737 -0.0913545 0.476562 
0.0406737 -0.0913545 0.46875 0.05 -0.0866025 0.476562 0.05 -0.0866025 0.46875 
0.0587785 -0.0809017 0.476562 0.0587785 -0.0809017 0.46875 0.0669131 -0.0743145 0.476562 
0.0669131 -0.0743145 0.46875 0.0743145 -0.0669131 0.476562 0.0743145 -0.0669131 0.46875 
0.0809017 -0.0587785 0.476562 0.0809017 -0.0587785 0.46875 0.0866025 -0.05 0.476562 
0.0866025 -0.05 0.46875 0.0913545 -0.0406737 0.476562 0.0913545 -0.0406737 0.46875 
0.0951057 -0.0309017 0.476562 0.0951057 -0.0309017 0.46875 0.0978148 -0.0207912 0.476562 
0.0978148 -0.0207912 0.46875 0.0994522 -0.0104528 0.476562 0.0994522 -0.0104528 0.46875 
0.1 -2.44929e-17 0.476562 0.1 -2.44929e-17 0.46875 0.1 0 0.445312 
0.1 0 0.4375 0.0994522 0.0104528 0.445312 0.0994522 0.0104528 0.4375 
0.0978148 0.0207912 0.445312 0.0978148 0.0207912 0.4375 0.0951057 0.0309017 0.445312 
0.0951057 0.0309017 0.4375 0.0913545 0.0406737 0.445312 0.0913545 0.0406737 0.4375 
0.0866025 0.05 0.445312 0.0866025 0.05 0.4375 0.0809017 0.0587785 0.445312 
0.0809017 0.0587785 0.4375 0.0743145 0.0669131 0.445312 0.0743145 0.0669131 0.4375 
0.0669131 0.0743145 0.445312 0.0669131 0.0743145 0.4375 0.0587785 0.0809017 0.445312 
0.0587785 0.0809017 0.4375 0.05 0.0866025 0.445312 0.05 0.0866025 0.4375 
0.0406737 0.0913545 0.445312 0.0406737 0.0913545 0.4375 0.0309017 0.0951057 0.445312 
0.0309017 0.0951057 0.4375 0.0207912 0.0978148 0.445312 0.0207912 0.0978148 0.4375 
0.0104528 0.0994522 0.445312 0.0104528 0.0994522 0.4375 6.12323e-18 0.1 0.445312 
6.12323e-18 0.1 0.4375 -0.0104528 0.0994522 0.445312 -0.0104528 0.0994522 0.4375 
-0.0207912 0.0978148 0.445312 -0.0207912 0.0978148 0.4375 -0.0309017 0.0951057 0.445312 
-0.0309017 0.0951057 0.4375 -0.0406737 0.0913545 0.445312 -0.0406737 0.0913545 0.4375 
-0.05 0.0866025 0.445312 -0.05 0.0866025 0.4375 -0.0587785 0.0809017 0.445312 
-0.0587785 0.0809017 0.4375 -0.0669131 0.0743145 0.445312 -0.0669131 0.0743145 0.4375 
-0.0743145 0.0669131 0.445312 -0.0743145 0.0669131 0.4375 -0.0809017 0.0587785 0.445312 
[...]
CELL_DATA 7680
FIELD FieldData 1
q 1 7680 double
0.00027140665103 0.0003354171975 0.00039438700267 0.00048729978345 0.00057644268551 0.00071004324269 0.00084069719495 0.001029357696 0.0012135503778 
0.0014728012172 0.0017199484508 0.0020632561446 0.002374411946 0.002807782786 0.0031675814002 0.00368231911 0.0040500477204 0.0046151260796 
0.0049179172879 0.0054745828424 0.0056066837801 0.006068370031 0.0058998450172 0.0061595969592 0.0055552153996 0.0055005268139 0.0043457015858 
0.0038777822406 0.0021050656921 0.0011575028107 -0.0012338085259 -0.0026821232828 -0.0056186052017 -0.0075394377788 -0.010879519692 -0.013200251853 
-0.016750520286 -0.019365542328 -0.022901977555 -0.02568670356 -0.028975594927 -0.031799636602 -0.034614923133 -0.037352359538 -0.039488767111 
-0.042025107429 -0.043308540792 -0.045545241478 -0.045842710236 -0.047700617234 -0.046931399024 -0.048354280883 -0.04650234514 -0.047460914781 
-0.044586360454 -0.045082132394 -0.041327352451 -0.041394753802 -0.036980301669 -0.036685136512 -0.031891683177 -0.031324608843 -0.026461054728 
-0.02572616412 -0.021088941364 -0.020289400027 -0.016122207774 -0.015346318508 -0.011810668099 -0.011121900795 -0.0082858432607 -0.0077190728201 
-0.0055654581179 -0.0051294949183 -0.0035788459574 -0.0032633545094 -0.0022027483419 -0.0019867026724 -0.0012962039996 -0.0011553600367 -0.00072665854211 
-0.00063864229961 -0.00038452035074 -0.00033133733864 -0.00018759761 -0.00015615698484 -7.8914312344e-05 -6.0412543215e-05 -2.1478536238e-05 -1.0357505501e-05 
7.4378363951e-06 1.4515852048e-05 2.1164490355e-05 2.6131669738e-05 2.7222467883e-05 3.117661247e-05 2.9729602963e-05 3.3302295475e-05 3.0904070606e-05 
3.4485761925e-05 3.1959484653e-05 3.5835010066e-05 3.3624640342e-05 3.8059002353e-05 3.6450325118e-05 4.1752418226e-05 4.1009512349e-05 4.7593640342e-05 
4.8060992774e-05 5.652261865e-05 5.8727434878e-05 6.9949828778e-05 7.4732445877e-05 9.004365491e-05 9.8742597172e-05 0.00012014573271 0.00013486328777 
0.00016536386313 0.0001893307239 0.00023337553234 0.00035393197621 0.00043526817985 0.00050977576703 0.00062663523177 0.00073799598767 0.00090416818841 
0.0010653892297 0.0012972450413 0.0015215121884 0.0018360561559 0.0021326079528 0.0025434756612 0.0029107942485 0.0034219241492 0.0038386549123 
0.0044362393524 0.0048517465367 0.0054963321032 0.0058244056829 0.0064461480221 0.0065661238853 0.0070664170397 0.0068348617686 0.0070962421678 
0.006369147614 0.0062726528653 0.0049338523159 0.0043799752883 0.0023683118913 0.0012958883187 -0.0013766149455 -0.0029787883054 -0.0062225545261 
-0.0083140289311 -0.011971394278 -0.014467602638 -0.018331930545 -0.02111762372 -0.024955923947 -0.027900251831 -0.0314738784 -0.034443589554 
-0.03752408558 -0.040393009796 -0.042773060347 -0.045427831648 -0.046929432139 -0.049272679563 -0.049755386943 -0.051708069668 -0.051079522019 
-0.05258380676 -0.050812880253 -0.051836113527 -0.048966600226 -0.049505777733 -0.045666079502 -0.045751140366 -0.041154272415 -0.040848045232 
-0.035777215445 -0.035170239398 -0.029948768466 -0.029148600412 -0.024098239789 -0.023214858546 -0.018611621858 -0.017742293757 -0.013781143323 
-0.012998656061 -0.0097761876718 -0.0091233000912 -0.0066416179446 -0.0061323790832 -0.0043203619074 -0.0039466804859 -0.0026900188851 -0.0024305510159 
-0.0016011476069 -0.0014296487891 -0.00090772810692 -0.00079908270593 -0.00048557755897 -0.00041904002685 -0.00023937307561 -0.00019951507158 -0.00010168524546 
-7.7929185517e-05 -2.7929286986e-05 -1.3479410923e-05 9.7523733286e-06 1.9043329869e-05 2.7957351783e-05 3.4526762076e-05 3.6192692436e-05 4.1445351881e-05 
3.9740892598e-05 4.4495905346e-05 4.1489999412e-05 4.6259542934e-05 4.3043767494e-05 4.8203940729e-05 4.5377368983e-05 5.1277930283e-05 4.9230366244e-05 
5.627684216e-05 5.5365760169e-05 6.4098374151e-05 6.4781548505e-05 7.597123894e-05 7.8937999875e-05 9.3719685532e-05 0.00010005496596 0.00012012075371 
0.00013153309129 0.00015941095885 0.00017855253012 0.00021799435678 0.00024888861277 0.00030537638103 0.00059097112444 0.00071969409044 0.00083625784098 
0.0010174189455 0.0011876748689 0.0014395471774 0.0016799391067 0.0020229318705 0.0023483267113 0.0028016729799 0.0032192154428 0.0037951093572 
0.0042950697174 0.0049903608729 0.0055351510524 0.0063219331174 0.0068363118142 0.0076541961763 0.0080212165425 0.0087749891554 0.0088422527176 
0.0094080911142 0.0090064953834 0.0092475890571 0.0082203435371 0.0080092715803 0.0062443389147 0.005486507492 0.0029432910562 0.001594800809 
-0.0016826342987 -0.0036075244125 -0.0074937108116 -0.0099266909696 -0.014231890347 -0.017063696263 -0.021558365848 -0.024656058089 -0.029095298792 
-0.032318816813 -0.036461446579 -0.039676077736 -0.043296365461 -0.046379962442 -0.049273300575 -0.052119013745 -0.05410490336 -0.056621367632 
-0.057547648726 -0.059658840568 -0.059410239492 -0.061056800489 -0.05956889706 -0.060711773296 -0.057988735748 -0.058614706312 -0.054746183367 
-0.05487354188 -0.050043965419 -0.04972575509 -0.044209189935 -0.043531385594 -0.037667815403 -0.036740992068 -0.030895429456 -0.029840599654 
-0.024352943626 -0.023284596256 -0.01842275804 -0.017433522822 -0.013362354623 -0.012513345487 -0.0092868335374 -0.0086056881391 -0.0061819032516 
-0.0056678092423 -0.0039389825001 -0.0035718754096 -0.0023988065605 -0.0021493207424 -0.0013907671165 -0.0012283090882 -0.00076030000551 -0.00065807228103 
-0.00038266534022 -0.00031978060941 -0.00016577158947 -0.00012731923032 -4.6367962726e-05 -2.2415592588e-05 1.6462111626e-05 3.2180399808e-05 4.7898321413e-05 
5.9180831829e-05 6.2813865315e-05 7.1914667195e-05 6.9724027256e-05 7.7993719816e-05 7.3425471129e-05 8.1728248438e-05 7.6661820036e-05 8.5640737832e-05 
8.1142889658e-05 9.1395432736e-05 8.8174746113e-05 0.00010038613242 9.9083747022e-05 0.0001141539709 0.0001155623408 0.00013475686812 0.00014003097763 
0.0001651836229 0.00017609433452 0.00020989193264 0.00022916264145 0.00027554063316 0.00030729703541 0.00037196524688 0.00042229964951 0.00051338540669 
0.0004587418828 0.00056140695625 0.00065491517928 0.00080090808211 0.0009390768735 0.0011443606725 0.0013419189399 0.00162490135 0.0018960174867 
0.002274977273 0.0026281847742 0.0031163864117 0.0035466327859 0.004145019014 0.0046235934089 0.0053119966813 0.0057767735766 0.0065059637493 
0.0068560076018 0.0075439498514 0.0076429560001 0.0081785394199 0.0078698806248 0.0081255700134 0.0072579003742 0.0071096381665 0.0055675184861 
0.0049171015769 0.0026482648408 0.0014419904122 -0.0015266042614 -0.0032881363709 -0.0068494891438 -0.0091124126499 -0.013092694168 -0.015760144809 
-0.01994056144 -0.022888098166 -0.027028602983 -0.030120151342 -0.033979535701 -0.037080359025 -0.04043022338 -0.04341538587 -0.046048591521 
-0.048807263648 -0.050543617736 -0.052980814369 -0.053673412431 -0.055711125025 -0.055255997767 -0.056835331119 -0.055185127156 -0.05627014533 
-0.053449932086 -0.054032691588 -0.050153257908 -0.050258302955 -0.045520673941 -0.045206584305 -0.039891917141 -0.039247705244 -0.033689926418 
-0.032825371834 -0.027369391413 -0.02640050021 -0.021354686661 -0.020387529397 -0.01598252198 -0.015099659891 -0.011464407729 -0.010717365931 
-0.0078776401217 -0.0072867297083 -0.0051837795932 -0.0047440467299 -0.00326508921 -0.0029554654251 -0.0019657969678 -0.0017582906106 -0.0011270169817 
-0.00099374523666 -0.0006094627433 -0.00052673225671 -0.00030357959378 -0.00025336071656 -0.00013022950298 -9.9913099635e-05 -3.6096433464e-05 -1.7435561191e-05 
1.2709348593e-05 2.4830903634e-05 3.670570113e-05 4.5341284589e-05 4.7825945782e-05 5.4761081258e-05 5.2800179898e-05 5.9090164963e-05 5.5363105969e-05 
6.167542147e-05 5.7619576621e-05 6.4447612547e-05 6.0865368006e-05 6.8667755496e-05 6.6086690514e-05 7.5392315669e-05 7.4292882008e-05 8.5801401172e-05 
8.678790185e-05 0.00010149050665 0.00010545823076 0.00012480278202 0.00013314270549 0.00015926936886 0.0001741465138 0.00021022156971 0.00023495654706 
0.00028562694169 0.0003251907889 0.0003971593976 0.0015312655212 0.0018286108541 0.0020914792352 0.0024926492157 0.0028587489731 0.0033913341485 
0.0038819982741 0.0045718403187 0.0051989543596 0.0060627788542 0.0068174097976 0.0078525196885 0.00869118429 0.0098638491466 0.010696005319 
0.011931940332 0.012614228769 0.013795713188 0.014138678224 0.015112299065 0.014902596638 0.015498773697 0.014534474795 0.014595535498 
0.012726195659 0.012135785019 0.0092956214728 0.0080008463719 0.0042248681809 0.0022447889394 -0.0023363374663 -0.0049174491522 -0.010100542219 
-0.013151696106 -0.018693456856 -0.022060609848 -0.027709100567 -0.031237204542 -0.036754665931 -0.040303376758 -0.045477070592 -0.048928365609 
-0.053570464109 -0.056829007359 -0.060769496303 -0.063758174429 -0.066836023155 -0.069489634227 -0.071547400273 -0.073807262581 -0.074693288783 
-0.076504926677 -0.076085583119 -0.077400757635 -0.075582689229 -0.076365874032 -0.073124920752 -0.073362893948 -0.068772785049 -0.068484600287 
-0.062735869459 -0.061979511044 -0.055378946 -0.054251099595 -0.047195803946 -0.045822826785 -0.038750496564 -0.037271590567 -0.030597417189 
-0.02914404848 -0.0232007082 -0.021878004519 -0.01687510666 -0.015750347709 -0.011762988637 -0.010863582345 -0.0078493341626 -0.0071692008163 
-0.0050039650153 -0.00451477686 -0.003034191565 -0.00269730995 -0.0017323238631 -0.0015083464257 -0.00090886233565 -0.00076347757071 -0.00040945459042 
-0.00031584431281 -0.00011877517224 -5.7610304352e-05 4.3594059502e-05 8.5404321708e-05 0.00013066526139 0.00016159310039 0.0001758393601 0.00020122970223 
0.00019946352024 0.00022270508264 0.00021371976611 0.00023708562443 0.00022599984717 0.00025122764968 0.00024113714143 0.00026983844621 0.00026288017932 
0.00029686093392 0.0002949280323 0.00033648860698 0.00034177293099 0.00039404482769 0.0004095354006 0.00047690364078 0.00050693254755 0.000595583235 
0.00064647647636 0.00076508895095 0.00084592997935 0.0010064864101 0.0011299089036 0.0013485001289 0.0012180231086 0.0014616858369 0.0016784225406 
0.0020106983153 0.0023162343219 0.0027625522288 0.0031775396114 0.0037630474006 0.0043013295524 0.0050446871761 0.0057033253334 0.0066075268091 
0.0073540716752 0.008395448253 0.0091553438882 0.010273581338 0.010922626365 0.012015977311 0.012383481308 0.013313297486 0.013199676136 
0.013806209721 0.013014112293 0.013141599889 0.011513901867 0.011038885931 0.0084929100468 0.0073477103421 0.0038953300375 0.0020798610982 
-0.0021720769115 -0.0045928611148 -0.0094603854894 -0.012371248599 -0.017622152163 -0.020878894423 -0.026263153126 -0.029713999855 -0.034987760895 
-0.038489832732 -0.043428909047 -0.046857466089 -0.051260519309 -0.054511261872 -0.058196012146 -0.061182474393 -0.063979846199 -0.066628677446 
-0.068379886281 -0.070626731887 -0.071187312421 -0.072975427499 -0.072228360093 -0.073511151057 -0.07138858106 -0.07213602848 -0.068645741883 
-0.068853207102 -0.064102722178 -0.063799331097 -0.058008437154 -0.057261512702 -0.050754810126 -0.049667261307 -0.042842734756 -0.041542189172 
-0.034819449827 -0.033440803792 -0.027200589908 -0.025866328209 -0.020397303805 -0.019201060868 -0.014668236205 -0.01366595842 -0.010107526621 
-0.0093177206612 -0.0066672495587 -0.0060785951522 -0.0042020439479 -0.0037846751624 -0.0025195439339 -0.0022361510781 -0.0014229647739 -0.0012371441565 
-0.00073884688438 -0.00061984960447 -0.00032961572196 -0.00025398284392 -9.4749044731e-05 -4.5918613698e-05 3.4487995626e-05 6.7527991012e-05 0.00010260682857 
0.00012686401773 0.00013719144658 0.00015701802734 0.00015478159237 0.00017289745068 0.0001651282156 0.00018333612538 0.00017406120079 0.00019372994775 
0.00018534752167 0.00020774715195 0.00020189730458 0.00022845954231 0.00022660199558 0.00025916515732 0.00026301675448 0.00030410463215 0.00031604629344 
0.00036922475412 0.00039275802058 0.00046310755884 0.0005034155016 0.00059814495676 0.00066277556663 0.0007919679608 0.00089158722711 0.0010689938552 
0.00096296350628 0.0011612776329 0.0013387464318 0.001612062737 0.0018652551192 0.0022366585475 0.0025850912954 0.0030784889656 0.0035370297101 
0.0041720166287 0.0047422688089 0.005526091997 0.006184805331 0.0071021629652 0.0077889154583 0.0087918836328 0.0094003219833 0.010402154962 
0.010780178997 0.011657086262 0.011620207448 0.012223649042 0.011581879262 0.011760498322 0.0103537036 0.0099800310759 0.0077122996457 
0.0067068315753 0.003569641757 0.0019153247773 -0.0020070773121 -0.004263595789 -0.0088068835752 -0.011566303389 -0.016511158664 -0.01964023859 
-0.024741189723 -0.02809307957 -0.033103132849 -0.036534224232 -0.041220630912 -0.044601161326 -0.048751711984 -0.051969875657 -0.055392388463 
-0.058353576279 -0.060873049613 -0.063496770418 -0.06495493721 -0.067172018643 -0.067433063292 -0.069185194981 -0.068149458995 -0.069392176791 
-0.067016915704 -0.067725840947 -0.064048811362 -0.064227522539 -0.059386210042 -0.059072942246 -0.053310859634 -0.052580748564 -0.046233737821 
-0.045194039234 -0.038654517686 -0.037432269409 -0.031096808134 -0.02982117598 -0.024033728702 -0.022817547535 -0.017823523534 -0.016749120916 
-0.012672390291 -0.01178526415 -0.0086321978742 -0.0079432016728 -0.0056287230571 -0.00512253542 -0.0035071649532 -0.0031533356919 -0.0020794579922 
-0.0018425560427 -0.0011617387808 -0.0010085299378 -0.00059698038719 -0.00050017922662 -0.00026372989953 -0.00020299483095 -7.5123063162e-05 -3.6376980174e-05 
2.7118013571e-05 5.3068533681e-05 8.0083245271e-05 9.8992749237e-05 0.00010638667927 0.00012177446383 0.00011937803281 0.00013341244017 0.00012680814873 
0.00014090946072 0.00013324320847 0.00014848253179 0.00014159852691 0.00015897015832 0.00015411768484 0.00017474905354 0.00017304564894 0.00019839564745 
0.00020117705341 0.00023326507305 0.00024241485581 0.00028411898782 0.00030244696173 0.00035790729605 0.00038962760541 0.00046478300275 0.00051611661444 
0.00061937915687 0.00069925168608 0.00084226489922 0.00075668200621 0.00091699582954 0.0010613157914 0.0012845950419 0.0014929431323 0.0017998576456 
0.0020903069966 0.0025031379841 0.0028908394619 0.0034293127788 0.0039191642656 0.0045935300763 0.0051697969705 0.0059715442441 0.0065861041643 
0.0074781001249 0.0080409554871 0.0089502839917 0.0093273541762 0.010144804003 0.010167490231 0.010756638044 0.01024454781 0.01046050099 
0.0092537595249 0.0089678393235 0.006960822225 0.006084600237 0.0032512793342 0.0017530721833 -0.0018433265614 -0.0039338519677 -0.0081486366662 
-0.010747931812 -0.015376072974 -0.018362647496 -0.023165600912 -0.026398962464 -0.031129440913 -0.034466964197 -0.038886568981 -0.042195176838 
-0.046083559593 -0.049245482476 -0.052403010172 -0.055316818591 -0.057564694501 -0.060143868315 -0.06132608452 -0.063497549592 -0.06348811862 
-0.065192699919 -0.063909636495 -0.06510540971 -0.062530139868 -0.063198367703 -0.059396085347 -0.05954803614 -0.054681953877 -0.054363868845 
-0.048695573272 -0.047988810957 -0.041859118773 -0.040873457852 -0.034663515764 -0.033523720692 -0.027603172555 -0.026431517653 -0.021106356186 
-0.020005638684 -0.015479739225 -0.014521386616 -0.010881492377 -0.01010154549 -0.007327353719 -0.0067302433669 -0.0047230476577 -0.0042905799359 
-0.0029093841724 -0.0026113259215 -0.0017057981699 -0.0015090010683 -0.00094269694993 -0.00081715898047 -0.00047941868596 -0.00040115688454 -0.00020972977796 
-0.00016125561779 -5.9199905431e-05 -2.8642689531e-05 2.1193226009e-05 4.1451440094e-05 6.2123560784e-05 7.6774604348e-05 8.199677048e-05 9.386684311e-05 
9.1512159216e-05 0.00010231830627 9.6788177811e-05 0.0001076419443 0.00010137654018 0.00011311058376 0.00010751769966 0.00012090532024 0.00011692939664 
0.00013285247174 0.00013134299475 0.00015095132978 0.00015294058538 0.00017783845401 0.00018480641292 0.00021729962884 0.00023148489982 0.0002749213771 
0.00029972442177 0.00035895772684 0.00039946475447 0.00048145404233 0.00054507025547 0.00065958606588 0.0076698042063 0.0088071074541 0.0097599041875 
0.011162183159 0.012356578128 0.014041879206 0.01546479696 0.017421114506 0.019010619393 0.0211809574 0.022809901244 0.025080939521 
0.026549829099 0.02875018536 0.029796905591 0.03171018045 0.032040823595 0.033434788559 0.032772625777 0.033439804528 0.031580956718 
0.031380096161 0.028239152344 0.027124912398 0.022755225386 0.0207865719 0.015368364303 0.012693492464 0.0064943898698 0.0033180195103 
-0.0033604120586 -0.0068165773129 -0.013690064516 -0.017222713614 -0.024060739464 -0.027508797507 -0.034150801423 -0.037405415518 -0.043757961788 
-0.04676045041 -0.052780675489 -0.055512393161 -0.061184108115 -0.063652389837 -0.06896025988 -0.071183695603 -0.076089343953 -0.078084467935 
-0.082507170648 -0.084277756363 -0.088082052999 -0.089611843786 -0.092604755745 -0.093854497241 -0.095795482146 -0.096705256721 -0.097331590081 
-0.09782923693 -0.096897304071 -0.096912833435 -0.094251427786 -0.093735638939 -0.08930144349 -0.088244808788 -0.082165022934 -0.080611281891 
-0.073197151045 -0.071246190016 -0.062966607657 -0.060763757417 -0.052179874188 -0.049893220871 -0.041568997007 -0.039360854546 -0.031774147926 
-0.029775154265 -0.023253891443 -0.02154690622 -0.016244921863 -0.014861809834 -0.010774210377 -0.0097038152962 -0.006709382707 -0.0059118225247 
-0.0038249111476 -0.0032467577491 -0.0018636412661 -0.0014500950273 -0.00058144182103 -0.000283899971 0.00022807419044 0.00044876808229 0.0007254460584 
0.00089881766406 0.0010280222974 0.0011754565821 0.0012178415828 0.0013546790258 0.0013508461071 0.0014884579509 0.0014653166133 0.0016128975942 
0.0015887540614 0.0017548006389 0.0017432126942 0.0019367652836 0.0019494343075 0.0021811942024 0.0022302092702 0.0025136242887 0.0026133127802 
0.0029656727603 0.0031341880403 0.0035776774913 0.0038382727202 0.0044007811818 0.0047824649603 0.0054977413512 0.006034678519 0.0069411467529 
0.0064061202533 0.0073921679578 0.0082243026859 0.0094545459783 0.010512608128 0.012010772269 0.013291856469 0.015056719373 0.016515387398 
0.018506056568 0.020037241634 0.022160496485 0.023589373921 0.025694720723 0.026781198079 0.028669181191 0.029132370927 0.030578720482 
0.030140535664 0.030933183105 0.02937192405 0.029351965245 0.026550496581 0.025644978333 0.02161776813 0.019853909057 0.014743871116 
0.012240608584 0.0062874600474 0.0032280744226 -0.0032804841624 -0.0066852181713 -0.013464040986 -0.017011363872 -0.023816836907 -0.027338040085 
-0.033988431405 -0.037361923275 -0.043738767408 -0.046890953115 -0.052925767826 -0.055823084048 -0.061475491783 -0.064111607239 -0.069344538775 
-0.071726143393 -0.07648252473 -0.078616120318 -0.082800316326 -0.084681543038 -0.088148358398 -0.089754956949 -0.09230908731 -0.093598498997 
-0.095007353946 -0.095919911369 -0.095941785867 -0.096410019489 -0.094836897901 -0.094800423293 -0.091510086715 -0.090933770744 -0.085940284268 
-0.084831397154 -0.078318897059 -0.076737759437 -0.069062865812 -0.06712220442 -0.058777300518 -0.056628532824 -0.048170409185 -0.045979563363 
-0.037940818825 -0.035860823062 -0.028668628354 -0.026816150314 -0.020740313609 -0.019183293901 -0.014324178937 -0.01308186927 -0.0093944243927 
-0.0084473131497 -0.0057869990544 -0.0050915074405 -0.0032650021862 -0.0027678701779 -0.0015753254079 -0.0012244288928 -0.00048703617753 -0.00023760727404 
0.00018946219713 0.00037259045754 0.000598173313 0.00074095704511 0.00084220780239 0.00096309651152 0.00099232153176 0.0011043345333 0.0010959437353 
0.0012086072156 0.0011850347575 0.001305996176 0.0012822866893 0.0014186158908 0.0014058171712 0.0015650889674 0.0015727585938 0.0017640316357 
0.0018021757996 0.0020369649382 0.0021176609606 0.0024109554498 0.0025497976761 0.0029210996935 0.0031384518677 0.0036126848289 0.0039345009569 
0.004542446139 0.0050001188996 0.0057777830211 0.0053180837576 0.0061667967323 0.0068881388648 0.0079594212227 0.0088893909977 0.010210944349 
0.011354717673 0.012934035653 0.014260361678 0.016070576659 0.017494508383 0.019460968431 0.020831491992 0.022824245561 0.023924238057 